LAMMPS (24 Mar 2022)
package gpu 0
package gpu 6
units           lj
atom_style      atomic
atom_modify     map array

read_data       glass.readdata
Reading data file ...
  orthogonal box = (-0.2550111 -0.23273012 -0.18862397) to (57.526157 57.115069 9.404455)
  3 by 2 by 1 MPI processor grid
  reading atoms ...
  36000 atoms
  reading velocities ...
  36000 velocities
  read_data CPU = 0.241 seconds
replicate	6 6 1
Replicating atoms ...
  orthogonal box = (-0.2550111 -0.23273012 -0.18862397) to (346.432 343.85407 9.404455)
  3 by 2 by 1 MPI processor grid
  1296000 atoms
  replicate CPU = 0.060 seconds
reset_timestep  0

mass            1 2.0
mass            2 1.0

variable        t equal 0.120

variable        bump equal 1.1
pair_style      lj/cut/bump 1.4
pair_coeff      1 1 1.0 1.0 1.2 1.0 ${bump} 1.4
pair_coeff      1 1 1.0 1.0 1.2 1.0 1.1 1.4
pair_coeff      1 2 1.0 0.9166666666667 1.2 1.0 ${bump} 1.2833333333
pair_coeff      1 2 1.0 0.9166666666667 1.2 1.0 1.1 1.2833333333
pair_coeff      2 2 1.0 0.8333333333333 1.2 1.0 ${bump} 1.1666666667
pair_coeff      2 2 1.0 0.8333333333333 1.2 1.0 1.1 1.1666666667

pair_modify     shift yes tail no

neighbor        0.2 bin
neigh_modify    every 20 delay 0 check yes

# Variable R controls the strainrate applied during the constant-K tensile test
# Check variable realR (the instantaneous strain rate applied)
# realR = (targetK-nowK)*R*0.1
# For example, at the initial condition, K_target is 19 RU, realR will be (19-0)*0.00005*0.1=0.000095 RU, which is 1.9E-4 1/ps.
variable R equal 0.00005

variable epercentage equal 0.45 # the percentage the body is compressed
variable                tmpxln equal "xlo"
variable                tmpxhn equal "xhi"

variable                tmpyln equal "ylo"
variable                tmpyhn equal "yhi"

variable                tmpzln equal "zlo"
variable                tmpzhn equal "zhi"

variable                ylnew0 equal ${tmpyln}+12 #4 #ly/5
variable                ylnew0 equal -0.232730117624271+12 
variable                yhnew0 equal ${tmpyhn}-12 #4 #ly/5
variable                yhnew0 equal 343.854065678326-12 

variable                xlnew0 equal ${tmpxhn}-lx*0.3075
variable                xlnew0 equal 346.431997604386-lx*0.3075
variable                xhnew0 equal ${tmpxhn}-lx*0.1357
variable                xhnew0 equal 346.431997604386-lx*0.1357

variable                zlnew0 equal ${tmpzln}+lz/6.5
variable                zlnew0 equal -0.18862396781983+lz/6.5
variable                zhnew0 equal ${tmpzhn}-lz/6.5
variable                zhnew0 equal 9.40445496781988-lz/6.5

variable                xlnew equal ${tmpxln}+lx/5.3
variable                xlnew equal -0.255011095065127+lx/5.3
variable                xhnew equal ${tmpxhn}-lx/5.3
variable                xhnew equal 346.431997604386-lx/5.3

variable                zlnew equal ${tmpzln}-lz
variable                zlnew equal -0.18862396781983-lz
variable                zhnew equal ${tmpzhn}+lz
variable                zhnew equal 9.40445496781988+lz

variable                halfx equal xlo+lx/2
variable                halfy equal ylo+ly/2
variable                halfwidth equal ly/8
variable                halfheight equal ${halfwidth}/5-2.0
variable                halfheight equal 43.0108494744938/5-2.0

# set the shape of the diamond pre-notch. The default is 70 in length and 15 in height both in RU
variable		notchh equal 15
variable		notchw equal 70

# The smaller notch is for smaller system for testing, should be commented off for bigger system
variable		lxvalue equal lx
if "${lxvalue} < 100" then "variable		notchh equal 5" "variable		notchw equal 15"

#Create diamond-shaped notch
variable		xnow1 equal ${halfx}-0.5*${notchw}
variable		xnow1 equal 173.088493254661-0.5*${notchw}
variable		xnow1 equal 173.088493254661-0.5*70
variable		xnow2 equal ${halfx}+0.5*${notchw}
variable		xnow2 equal 173.088493254661+0.5*${notchw}
variable		xnow2 equal 173.088493254661+0.5*70
variable		ynow1 equal ${halfy}-0.5*${notchh}
variable		ynow1 equal 171.810667780351-0.5*${notchh}
variable		ynow1 equal 171.810667780351-0.5*15
variable		ynow2 equal ${halfy}+0.5*${notchh}
variable		ynow2 equal 171.810667780351+0.5*${notchh}
variable		ynow2 equal 171.810667780351+0.5*15
region			r1 plane ${halfx} ${ynow2} 0.0 ${notchh} -${notchw} 0.0
region			r1 plane 173.088493254661 ${ynow2} 0.0 ${notchh} -${notchw} 0.0
region			r1 plane 173.088493254661 179.310667780351 0.0 ${notchh} -${notchw} 0.0
region			r1 plane 173.088493254661 179.310667780351 0.0 15 -${notchw} 0.0
region			r1 plane 173.088493254661 179.310667780351 0.0 15 -70 0.0
region			r2 plane ${halfx} ${ynow1} 0.0 -${notchh} ${notchw} 0.0
region			r2 plane 173.088493254661 ${ynow1} 0.0 -${notchh} ${notchw} 0.0
region			r2 plane 173.088493254661 164.310667780351 0.0 -${notchh} ${notchw} 0.0
region			r2 plane 173.088493254661 164.310667780351 0.0 -15 ${notchw} 0.0
region			r2 plane 173.088493254661 164.310667780351 0.0 -15 70 0.0
region			r3 plane ${halfx} ${ynow2} 0.0 -${notchh} -${notchw} 0.0
region			r3 plane 173.088493254661 ${ynow2} 0.0 -${notchh} -${notchw} 0.0
region			r3 plane 173.088493254661 179.310667780351 0.0 -${notchh} -${notchw} 0.0
region			r3 plane 173.088493254661 179.310667780351 0.0 -15 -${notchw} 0.0
region			r3 plane 173.088493254661 179.310667780351 0.0 -15 -70 0.0
region			r4 plane ${halfx} ${ynow1} 0.0 ${notchh} ${notchw} 0.0
region			r4 plane 173.088493254661 ${ynow1} 0.0 ${notchh} ${notchw} 0.0
region			r4 plane 173.088493254661 164.310667780351 0.0 ${notchh} ${notchw} 0.0
region			r4 plane 173.088493254661 164.310667780351 0.0 15 ${notchw} 0.0
region			r4 plane 173.088493254661 164.310667780351 0.0 15 70 0.0
region			rnotch intersect 4 r1 r2 r3 r4
delete_atoms		region rnotch
Deleted 5695 atoms, new total = 1290305

group  g_nano type 1 2
1290305 atoms in group g_nano

compute        peratom all stress/atom NULL

timestep        0.005 #100000

thermo  100000

fix     5 all nvt temp $t $t 0.5
fix     5 all nvt temp 0.12 $t 0.5
fix     5 all nvt temp 0.12 0.12 0.5
run     0 #5000000 #00

CITE-CITE-CITE-CITE-CITE-CITE-CITE-CITE-CITE-CITE-CITE-CITE-CITE

Your simulation uses code contributions which should be cited:

- GPU package (short-range, long-range and three-body potentials):

@Article{Brown11,
 author = {W. M. Brown, P. Wang, S. J. Plimpton, A. N. Tharrington},
 title = {Implementing Molecular Dynamics on Hybrid High Performance Computers - Short Range Forces},
 journal = {Comp.~Phys.~Comm.},
 year =    2011,
 volume =  182,
 pages =   {898--911}
}

@Article{Brown12,
 author = {W. M. Brown, A. Kohlmeyer, S. J. Plimpton, A. N. Tharrington},
 title = {Implementing Molecular Dynamics on Hybrid High Performance Computers - Particle-Particle Particle-Mesh},
 journal = {Comp.~Phys.~Comm.},
 year =    2012,
 volume =  183,
 pages =   {449--459}
}

@Article{Brown13,
 author = {W. M. Brown, Y. Masako},
 title = {Implementing Molecular Dynamics on Hybrid High Performance Computers – Three-Body Potentials},
 journal = {Comp.~Phys.~Comm.},
 year =    2013,
 volume =  184,
 pages =   {2785--2793}
}

@Article{Trung15,
 author = {T. D. Nguyen, S. J. Plimpton},
 title = {Accelerating dissipative particle dynamics simulations for soft matter systems},
 journal = {Comput.~Mater.~Sci.},
 year =    2015,
 volume =  100,
 pages =   {173--180}
}

@Article{Trung17,
 author = {T. D. Nguyen},
 title = {GPU-accelerated Tersoff potentials for massively parallel Molecular Dynamics simulations},
 journal = {Comp.~Phys.~Comm.},
 year =    2017,
 volume =  212,
 pages =   {113--122}
}

@Article{Nikolskiy19,
 author = {V. Nikolskiy, V. Stegailov},
 title = {GPU acceleration of four-site water models in LAMMPS},
 journal = {Proceeding of the International Conference on Parallel Computing (ParCo 2019), Prague, Czech Republic},
 year =    2019
}

CITE-CITE-CITE-CITE-CITE-CITE-CITE-CITE-CITE-CITE-CITE-CITE-CITE

  generated 0 of 1 mixed pair_coeff terms from geometric mixing rule
Per MPI rank memory allocation (min/avg/max) = 81.2 | 81.39 | 81.48 Mbytes
   Step          Temp          E_pair         E_mol          TotEng         Press     
         0   0.016115458   -2.576701       0             -2.5525278      0.0076605965 
Loop time of 4.55467e-06 on 6 procs for 0 steps with 1290305 atoms

164.7% CPU use with 6 MPI tasks x no OpenMP threads

MPI task timing breakdown:
Section |  min time  |  avg time  |  max time  |%varavg| %total
---------------------------------------------------------------
Pair    | 0          | 0          | 0          |   0.0 |  0.00
Neigh   | 0          | 0          | 0          |   0.0 |  0.00
Comm    | 0          | 0          | 0          |   0.0 |  0.00
Output  | 0          | 0          | 0          |   0.0 |  0.00
Modify  | 0          | 0          | 0          |   0.0 |  0.00
Other   |            | 4.555e-06  |            |       |100.00

Nlocal:         215051 ave      216000 max      213150 min
Histogram: 2 0 0 0 0 0 0 0 0 4
Nghost:        84344.8 ave       85139 max       82752 min
Histogram: 2 0 0 0 0 0 0 0 0 4
Neighs:              0 ave           0 max           0 min
Histogram: 6 0 0 0 0 0 0 0 0 0

Total # of neighbors = -6
Ave neighs/atom = -4.6500634e-06
Neighbor list builds = 0
Dangerous builds = 0
unfix   5

variable lxr equal xhi-xlo

restart         100000 restartpull.MD_*

variable yl equal ${tmpyln}
variable yl equal -0.232730117624271
variable yh equal ${tmpyln}+8
variable yh equal -0.232730117624271+8
variable leny equal ${yh}-${yl}
variable leny equal 7.76726988237573-${yl}
variable leny equal 7.76726988237573--0.232730117624271
variable lenz equal ${tmpzhn}-${tmpzln}
variable lenz equal 9.40445496781988-${tmpzln}
variable lenz equal 9.40445496781988--0.18862396781983

#Allowed tolerance between the instant K and target K, relative amount
variable tol equal 0.05

#Far field stress is calculated from region r_farfield
region          r_farfield block INF INF ${yl} ${yh} INF INF units box
region          r_farfield block INF INF -0.232730117624271 ${yh} INF INF units box
region          r_farfield block INF INF -0.232730117624271 7.76726988237573 INF INF units box
group           g_farfield region r_farfield
29964 atoms in group g_farfield
variable        n_farfield equal count(g_farfield)
variable	debug equal ${n_farfield}
variable	debug equal 29964

compute        peratomy g_farfield stress/atom NULL
compute        p g_farfield reduce sum c_peratomy[2]
variable	volfarfield equal (${yh}-${yl})*lx*lz
variable	volfarfield equal (7.76726988237573-${yl})*lx*lz
variable	volfarfield equal (7.76726988237573--0.232730117624271)*lx*lz

#Far field stress value, which is used to calculate the instant K
variable       avgpressy equal -c_p/${volfarfield}
variable       avgpressy equal -c_p/26606.3667233172

variable	xcmin equal 0.0
variable	xcmax equal 0.0
variable	cracklength equal 0.0
variable	targetsif equal 0.0
variable	sif equal 0.0

dump            2d all custom 1 ini3.mech id type x y z vx vy vz fx fy fz c_peratom[2] # c_1b c_cx

thermo_style    custom step atoms temp pe etotal pxx pyy pzz lx ly lz press vol v_xcmin v_xcmax v_avgpressy v_cracklength v_targetsif v_sif c_p # c_5 c_6 c_p c_rt[1] c_rt[2] v_vcx v_vcy v_v1c v_vcid v_avgc v_avgpressy c_1dmin c_1dminid[1] #temp pe ke etotal vol press c_3 c_4 c_11[1] c_12[1]
thermo          100 #1dminid
run             0
WARNING: No fixes with time integration, atoms won't move (src/verlet.cpp:60)
  generated 0 of 1 mixed pair_coeff terms from geometric mixing rule
Per MPI rank memory allocation (min/avg/max) = 134.6 | 135.1 | 135.3 Mbytes
   Step        Atoms         Temp          PotEng         TotEng          Pxx            Pyy            Pzz             Lx             Ly             Lz           Press          Volume        v_xcmin        v_xcmax      v_avgpressy   v_cracklength   v_targetsif       v_sif           c_p      
         0     1290305   0.016115458   -2.576701      -2.5525278      0.0053098728   0.0085824635   0.009089453    346.68701      344.0868       9.5930789      0.0076605965   1144362.4      0              0              0.048444953    0              0              0             -0.00099894536
Loop time of 3.36267e-06 on 6 procs for 0 steps with 1290305 atoms

228.0% CPU use with 6 MPI tasks x no OpenMP threads

MPI task timing breakdown:
Section |  min time  |  avg time  |  max time  |%varavg| %total
---------------------------------------------------------------
Pair    | 0          | 0          | 0          |   0.0 |  0.00
Neigh   | 0          | 0          | 0          |   0.0 |  0.00
Comm    | 0          | 0          | 0          |   0.0 |  0.00
Output  | 0          | 0          | 0          |   0.0 |  0.00
Modify  | 0          | 0          | 0          |   0.0 |  0.00
Other   |            | 3.363e-06  |            |       |100.00

Nlocal:         215051 ave      216000 max      213150 min
Histogram: 2 0 0 0 0 0 0 0 0 4
Nghost:        84344.8 ave       85139 max       82752 min
Histogram: 2 0 0 0 0 0 0 0 0 4
Neighs:              0 ave           0 max           0 min
Histogram: 6 0 0 0 0 0 0 0 0 0

Total # of neighbors = -6
Ave neighs/atom = -4.6500634e-06
Neighbor list builds = 0
Dangerous builds = 0
undump 2d


fix     5 all nvt temp $t $t 0.5
fix     5 all nvt temp 0.12 $t 0.5
fix     5 all nvt temp 0.12 0.12 0.5
run     0 #5000000 #00
  generated 0 of 1 mixed pair_coeff terms from geometric mixing rule
Per MPI rank memory allocation (min/avg/max) = 109.7 | 109.9 | 110 Mbytes
   Step        Atoms         Temp          PotEng         TotEng          Pxx            Pyy            Pzz             Lx             Ly             Lz           Press          Volume        v_xcmin        v_xcmax      v_avgpressy   v_cracklength   v_targetsif       v_sif           c_p      
         0     1290305   0.016115458   -2.576701      -2.5525278      0.0053098728   0.0085824635   0.009089453    346.68701      344.0868       9.5930789      0.0076605965   1144362.4      0              0              0.048444953    0              0              0             -0.00099894536
Loop time of 3.68967e-06 on 6 procs for 0 steps with 1290305 atoms

203.3% CPU use with 6 MPI tasks x no OpenMP threads

MPI task timing breakdown:
Section |  min time  |  avg time  |  max time  |%varavg| %total
---------------------------------------------------------------
Pair    | 0          | 0          | 0          |   0.0 |  0.00
Neigh   | 0          | 0          | 0          |   0.0 |  0.00
Comm    | 0          | 0          | 0          |   0.0 |  0.00
Output  | 0          | 0          | 0          |   0.0 |  0.00
Modify  | 0          | 0          | 0          |   0.0 |  0.00
Other   |            | 3.69e-06   |            |       |100.00

Nlocal:         215051 ave      216000 max      213150 min
Histogram: 2 0 0 0 0 0 0 0 0 4
Nghost:        84344.8 ave       85139 max       82752 min
Histogram: 2 0 0 0 0 0 0 0 0 4
Neighs:              0 ave           0 max           0 min
Histogram: 6 0 0 0 0 0 0 0 0 0

Total # of neighbors = -6
Ave neighs/atom = -4.6500634e-06
Neighbor list builds = 0
Dangerous builds = 0
unfix   5

dump            1 all custom 100000 ini.mech id type x y z vx vy vz fx fy fz c_peratom[2] # c_latape v_flagsurface # c_1b
thermo          100
run             0
WARNING: No fixes with time integration, atoms won't move (src/verlet.cpp:60)
  generated 0 of 1 mixed pair_coeff terms from geometric mixing rule
Per MPI rank memory allocation (min/avg/max) = 148.8 | 149.3 | 149.6 Mbytes
   Step        Atoms         Temp          PotEng         TotEng          Pxx            Pyy            Pzz             Lx             Ly             Lz           Press          Volume        v_xcmin        v_xcmax      v_avgpressy   v_cracklength   v_targetsif       v_sif           c_p      
         0     1290305   0.016115458   -2.576701      -2.5525278      0.0053098728   0.0085824635   0.009089453    346.68701      344.0868       9.5930789      0.0076605965   1144362.4      0              0              0.048444953    0              0              0             -0.00099894536
Loop time of 4.2055e-06 on 6 procs for 0 steps with 1290305 atoms

154.6% CPU use with 6 MPI tasks x no OpenMP threads

MPI task timing breakdown:
Section |  min time  |  avg time  |  max time  |%varavg| %total
---------------------------------------------------------------
Pair    | 0          | 0          | 0          |   0.0 |  0.00
Neigh   | 0          | 0          | 0          |   0.0 |  0.00
Comm    | 0          | 0          | 0          |   0.0 |  0.00
Output  | 0          | 0          | 0          |   0.0 |  0.00
Modify  | 0          | 0          | 0          |   0.0 |  0.00
Other   |            | 4.206e-06  |            |       |100.00

Nlocal:         215051 ave      216000 max      213150 min
Histogram: 2 0 0 0 0 0 0 0 0 4
Nghost:        84344.8 ave       85139 max       82752 min
Histogram: 2 0 0 0 0 0 0 0 0 4
Neighs:              0 ave           0 max           0 min
Histogram: 6 0 0 0 0 0 0 0 0 0

Total # of neighbors = -6
Ave neighs/atom = -4.6500634e-06
Neighbor list builds = 0
Dangerous builds = 0

variable cracktipl equal v_xcmin
variable cracktipr equal v_xcmax

variable cracktipold equal v_cracktipl
variable cracklength equal ${xcmax}-${xcmin}
variable cracklength equal 0-${xcmin}
variable cracklength equal 0-0
variable       targetsif equal 19
variable       toltargetsif1 equal ${targetsif}-${tol}*${targetsif}
variable       toltargetsif1 equal 19-${tol}*${targetsif}
variable       toltargetsif1 equal 19-0.05*${targetsif}
variable       toltargetsif1 equal 19-0.05*19
variable       toltargetsif2 equal ${targetsif}+${tol}*${targetsif}
variable       toltargetsif2 equal 19+${tol}*${targetsif}
variable       toltargetsif2 equal 19+0.05*${targetsif}
variable       toltargetsif2 equal 19+0.05*19

# instant K calculation
variable       sif equal -${avgpressy}*(sqrt(${cracklength}/2))*(sqrt(3.1416))*sqrt(1/cos((3.1416*(${cracklength}/2))/${lxr}))
variable       sif equal -0.0484449531207932*(sqrt(${cracklength}/2))*(sqrt(3.1416))*sqrt(1/cos((3.1416*(${cracklength}/2))/${lxr}))
variable       sif equal -0.0484449531207932*(sqrt(0/2))*(sqrt(3.1416))*sqrt(1/cos((3.1416*(${cracklength}/2))/${lxr}))
variable       sif equal -0.0484449531207932*(sqrt(0/2))*(sqrt(3.1416))*sqrt(1/cos((3.1416*(0/2))/${lxr}))
variable       sif equal -0.0484449531207932*(sqrt(0/2))*(sqrt(3.1416))*sqrt(1/cos((3.1416*(0/2))/346.687008699451))

fix	5 all npt temp $t $t 0.5 x 0.0 0.0 1.0
fix	5 all npt temp 0.12 $t 0.5 x 0.0 0.0 1.0
fix	5 all npt temp 0.12 0.12 0.5 x 0.0 0.0 1.0
label      delete
variable   j loop 10000


###########Obtain the crack length here##################
run     0
  generated 0 of 1 mixed pair_coeff terms from geometric mixing rule
Per MPI rank memory allocation (min/avg/max) = 154.7 | 155.2 | 155.5 Mbytes
   Step        Atoms         Temp          PotEng         TotEng          Pxx            Pyy            Pzz             Lx             Ly             Lz           Press          Volume        v_xcmin        v_xcmax      v_avgpressy   v_cracklength   v_targetsif       v_sif           c_p      
         0     1290305   0.016115458   -2.576701      -2.5525278      0.0053098728   0.0085824635   0.009089453    346.68701      344.0868       9.5930789      0.0076605965   1144362.4      0              0              0.048444953    0              19            -0             -0.00099894536
Loop time of 3.545e-06 on 6 procs for 0 steps with 1290305 atoms

216.3% CPU use with 6 MPI tasks x no OpenMP threads

MPI task timing breakdown:
Section |  min time  |  avg time  |  max time  |%varavg| %total
---------------------------------------------------------------
Pair    | 0          | 0          | 0          |   0.0 |  0.00
Neigh   | 0          | 0          | 0          |   0.0 |  0.00
Comm    | 0          | 0          | 0          |   0.0 |  0.00
Output  | 0          | 0          | 0          |   0.0 |  0.00
Modify  | 0          | 0          | 0          |   0.0 |  0.00
Other   |            | 3.545e-06  |            |       |100.00

Nlocal:         215051 ave      216000 max      213150 min
Histogram: 2 0 0 0 0 0 0 0 0 4
Nghost:        84344.8 ave       85139 max       82752 min
Histogram: 2 0 0 0 0 0 0 0 0 4
Neighs:              0 ave           0 max           0 min
Histogram: 6 0 0 0 0 0 0 0 0 0

Total # of neighbors = -6
Ave neighs/atom = -4.6500634e-06
Neighbor list builds = 0
Dangerous builds = 0

log	none
variable       sif equal -${avgpressy}*(sqrt(${cracklength}/2))*(sqrt(3.1416))*sqrt(1/cos((3.1416*(${cracklength}/2))/${lxr}))
variable       sif equal -0.0484449531207932*(sqrt(${cracklength}/2))*(sqrt(3.1416))*sqrt(1/cos((3.1416*(${cracklength}/2))/${lxr}))
variable       sif equal -0.0484449531207932*(sqrt(62.403661565902/2))*(sqrt(3.1416))*sqrt(1/cos((3.1416*(${cracklength}/2))/${lxr}))
variable       sif equal -0.0484449531207932*(sqrt(62.403661565902/2))*(sqrt(3.1416))*sqrt(1/cos((3.1416*(62.403661565902/2))/${lxr}))
variable       sif equal -0.0484449531207932*(sqrt(62.403661565902/2))*(sqrt(3.1416))*sqrt(1/cos((3.1416*(62.403661565902/2))/346.687008699451))

thermo          1000
run             0
  generated 0 of 1 mixed pair_coeff terms from geometric mixing rule
Per MPI rank memory allocation (min/avg/max) = 154.7 | 155.2 | 155.5 Mbytes
   Step        Atoms         Temp          PotEng         TotEng          Pxx            Pyy            Pzz             Lx             Ly             Lz           Press          Volume        v_xcmin        v_xcmax      v_avgpressy   v_cracklength   v_targetsif       v_sif           c_p      
         0     1290305   0.016115458   -2.576701      -2.5525278      0.0053098728   0.0085824635   0.009089453    346.68701      344.0868       9.5930789      0.0076605965   1144362.4      142.75338      205.15704      0.048444953    62.403662      19            -0.48945416    -0.00099894536
Loop time of 4.0985e-06 on 6 procs for 0 steps with 1290305 atoms

215.5% CPU use with 6 MPI tasks x no OpenMP threads

MPI task timing breakdown:
Section |  min time  |  avg time  |  max time  |%varavg| %total
---------------------------------------------------------------
Pair    | 0          | 0          | 0          |   0.0 |  0.00
Neigh   | 0          | 0          | 0          |   0.0 |  0.00
Comm    | 0          | 0          | 0          |   0.0 |  0.00
Output  | 0          | 0          | 0          |   0.0 |  0.00
Modify  | 0          | 0          | 0          |   0.0 |  0.00
Other   |            | 4.099e-06  |            |       |100.00

Nlocal:         215051 ave      216000 max      213150 min
Histogram: 2 0 0 0 0 0 0 0 0 4
Nghost:        84344.8 ave       85139 max       82752 min
Histogram: 2 0 0 0 0 0 0 0 0 4
Neighs:              0 ave           0 max           0 min
Histogram: 6 0 0 0 0 0 0 0 0 0

Total # of neighbors = -6
Ave neighs/atom = -4.6500634e-06
Neighbor list builds = 0
Dangerous builds = 0

variable ti equal step
variable myly equal ly
variable	realR equal ${R}*(${targetsif}-${sif})*0.1
variable	realR equal 5e-05*(${targetsif}-${sif})*0.1
variable	realR equal 5e-05*(19-${sif})*0.1
variable	realR equal 5e-05*(19--0.48945416426597)*0.1
print "123456 ${ti} ${cracklength} ${sif} ${realR} ${myly}" append cracklength.dat screen no


run      0
  generated 0 of 1 mixed pair_coeff terms from geometric mixing rule
Per MPI rank memory allocation (min/avg/max) = 154.7 | 155.2 | 155.5 Mbytes
   Step        Atoms         Temp          PotEng         TotEng          Pxx            Pyy            Pzz             Lx             Ly             Lz           Press          Volume        v_xcmin        v_xcmax      v_avgpressy   v_cracklength   v_targetsif       v_sif           c_p      
         0     1290305   0.016115458   -2.576701      -2.5525278      0.0053098728   0.0085824635   0.009089453    346.68701      344.0868       9.5930789      0.0076605965   1144362.4      142.75338      205.15704      0.048444953    62.403662      19            -0.48945416    -0.00099894536
Loop time of 3.63483e-06 on 6 procs for 0 steps with 1290305 atoms

220.1% CPU use with 6 MPI tasks x no OpenMP threads

MPI task timing breakdown:
Section |  min time  |  avg time  |  max time  |%varavg| %total
---------------------------------------------------------------
Pair    | 0          | 0          | 0          |   0.0 |  0.00
Neigh   | 0          | 0          | 0          |   0.0 |  0.00
Comm    | 0          | 0          | 0          |   0.0 |  0.00
Output  | 0          | 0          | 0          |   0.0 |  0.00
Modify  | 0          | 0          | 0          |   0.0 |  0.00
Other   |            | 3.635e-06  |            |       |100.00

Nlocal:         215051 ave      216000 max      213150 min
Histogram: 2 0 0 0 0 0 0 0 0 4
Nghost:        84344.8 ave       85139 max       82752 min
Histogram: 2 0 0 0 0 0 0 0 0 4
Neighs:              0 ave           0 max           0 min
Histogram: 6 0 0 0 0 0 0 0 0 0

Total # of neighbors = -6
Ave neighs/atom = -4.6500634e-06
Neighbor list builds = 0
Dangerous builds = 0
group           g_3 type 3
0 atoms in group g_3

fix		6 all deform 1 y erate ${realR} units box remap x
fix		6 all deform 1 y erate 9.74472708213299e-05 units box remap x
run		10000
  generated 0 of 1 mixed pair_coeff terms from geometric mixing rule
Per MPI rank memory allocation (min/avg/max) = 154.7 | 155.2 | 155.5 Mbytes
   Step        Atoms         Temp          PotEng         TotEng          Pxx            Pyy            Pzz             Lx             Ly             Lz           Press          Volume        v_xcmin        v_xcmax      v_avgpressy   v_cracklength   v_targetsif       v_sif           c_p      
         0     1290305   0.016115458   -2.576701      -2.5525278      0.0053098728   0.0085824635   0.009089453    346.68701      344.0868       9.5930789      0.0076605965   1144362.4      142.75338      205.15704      0.048444953    62.403662      19            -0.48945416    -0.00099894536
      1000     1290305   0.032729934   -2.5531708     -2.504076      -0.0009142188  -0.019302164    0.0023958709   346.71165      344.25445      9.5930789     -0.0059401705   1145001.4      142.75338      205.15704     -0.00043553274  62.403662      19            -0.48945416     8.9807789e-06
      2000     1290305   0.082000404   -2.4883898     -2.3653893     -0.0014225886  -0.052155203    0.021934846    346.77029      344.4221       9.5930789     -0.010547649    1145752.7      142.75338      205.15704     -0.1151874      62.403662      19            -0.48945416     0.0023751889 
      3000     1290305   0.11794346    -2.4430745     -2.2661595      0.0093050814  -0.097029762    0.013550538    346.70253      344.58975      9.5930789     -0.024724714    1146086.5      142.75338      205.15704      0.015309669    62.403662      19            -0.48945416    -0.00031568867
      4000     1290305   0.12109976    -2.4390607     -2.2574112     -0.0023086826  -0.13768151     0.0098060863   346.68747      344.7574       9.5930789     -0.043394704    1146594.3      142.75338      205.15704     -0.16201803     62.403662      19            -0.48945416     0.0033408466 
      5000     1290305   0.11991928    -2.4403161     -2.2604373      0.0016481424  -0.17392299     0.0009250966   346.63846      344.92505      9.5930789     -0.057116584    1146989.7      142.75338      205.15704     -0.17825134     62.403662      19            -0.48945416     0.0036755811 
      6000     1290305   0.1193217     -2.4413118     -2.2623294      0.0067581322  -0.20771494    -0.0030631467   346.60421      345.09271      9.5930789     -0.068006652    1147433.8      142.75338      205.15704     -0.24724972     62.403662      19            -0.48945416     0.0050983425 
      7000     1290305   0.120661      -2.4392595     -2.2582682      0.0057342486  -0.25879997    -0.01500895     346.5624       345.26036      9.5930789     -0.089358226    1147852.7      142.75338      205.15704     -0.20054951     62.403662      19            -0.48945416     0.0041353741 
      8000     1290305   0.12001133    -2.4401493     -2.2601324     -0.003474869   -0.29154657    -0.025440549    346.53902      345.42801      9.5930789     -0.10682066     1148332.6      142.75338      205.15704     -0.30986437     62.403662      19            -0.48945416     0.0063894699 
      9000     1290305   0.11946094    -2.440421      -2.2612297     -0.0049406173  -0.33171038    -0.031457891    346.50227      345.59566      9.5930789     -0.12270296     1148768.2      142.75338      205.15704     -0.36039949     62.403662      19            -0.48945416     0.007431515  
     10000     1290305   0.12047367    -2.4389872     -2.2582769     -0.0012428438  -0.37327145    -0.041724427    346.4384       345.76331      9.5930789     -0.13874624     1149113.6      142.75338      205.15704     -0.45093269     62.403662      19            -0.48945416     0.0092983291 
Loop time of 149.659 on 6 procs for 10000 steps with 1290305 atoms

Performance: 28865.578 tau/day, 66.818 timesteps/s
99.1% CPU use with 6 MPI tasks x no OpenMP threads

MPI task timing breakdown:
Section |  min time  |  avg time  |  max time  |%varavg| %total
---------------------------------------------------------------
Pair    | 15.421     | 15.635     | 15.938     |   4.7 | 10.45
Neigh   | 0.21099    | 0.23833    | 0.25447    |   3.0 |  0.16
Comm    | 12.186     | 16.003     | 17.456     |  44.0 | 10.69
Output  | 0.083927   | 0.084704   | 0.084977   |   0.1 |  0.06
Modify  | 111.25     | 112.4      | 116.44     |  17.1 | 75.10
Other   |            | 5.3        |            |       |  3.54

Nlocal:         215051 ave      216025 max      213116 min
Histogram: 2 0 0 0 0 0 0 0 0 4
Nghost:        84311.8 ave       85136 max       82707 min
Histogram: 2 0 0 0 0 0 0 0 0 4
Neighs:              0 ave           0 max           0 min
Histogram: 6 0 0 0 0 0 0 0 0 0

Total # of neighbors = -6
Ave neighs/atom = -4.6500634e-06
Neighbor list builds = 477
Dangerous builds = 454
unfix		6

#After tension, run more at zero strain rate in a holding state

run 10000
  generated 0 of 1 mixed pair_coeff terms from geometric mixing rule
Per MPI rank memory allocation (min/avg/max) = 154.7 | 155.2 | 155.5 Mbytes
   Step        Atoms         Temp          PotEng         TotEng          Pxx            Pyy            Pzz             Lx             Ly             Lz           Press          Volume        v_xcmin        v_xcmax      v_avgpressy   v_cracklength   v_targetsif       v_sif           c_p      
     10000     1290305   0.12047367    -2.438987      -2.2582766     -0.0012745694  -0.37336848    -0.041760732    346.4384       345.76331      9.5930789     -0.13880126     1149113.6      142.75338      205.15704     -0.45102795     62.403662      19            -0.48945416     0.0093002933 
     11000     1290305   0.11994317    -2.4395729     -2.2596583     -0.0014523512  -0.36780639    -0.039385176    346.45834      345.76331      9.5930789     -0.13621464     1149179.7      142.75338      205.15704     -0.30973783     62.403662      19            -0.48945416     0.0063868607 
     12000     1290305   0.11964943    -2.4400541     -2.2605801      0.0034925805  -0.35371878    -0.033345225    346.44866      345.76331      9.5930789     -0.12785714     1149147.6      142.75338      205.15704     -0.36518084     62.403662      19            -0.48945416     0.0075301076 
     13000     1290305   0.12041272    -2.4389829     -2.258364       0.003564432   -0.34473327    -0.028086621    346.47294      345.76331      9.5930789     -0.12308515     1149228.1      142.75338      205.15704     -0.34528262     62.403662      19            -0.48945416     0.0071198019 
     14000     1290305   0.11995001    -2.4396003     -2.2596754      0.0059550277  -0.34286965    -0.026414337    346.4719       345.76331      9.5930789     -0.12110965     1149224.7      142.75338      205.15704     -0.37920915     62.403662      19            -0.48945416     0.0078193744 
     15000     1290305   0.11968843    -2.4397762     -2.2602437      0.0010710599  -0.33032804    -0.020978013    346.49912      345.76331      9.5930789     -0.116745       1149315        142.75338      205.15704     -0.308783       62.403662      19            -0.48945416     0.0063671719 
     16000     1290305   0.12044927    -2.4391561     -2.2584823     -0.0067001123  -0.33023269    -0.023478833    346.52444      345.76331      9.5930789     -0.12013721     1149399        142.75338      205.15704     -0.35573763     62.403662      19            -0.48945416     0.0073353864 
     17000     1290305   0.1198561     -2.4393836     -2.2595996     -0.0089872885  -0.32417326    -0.023087609    346.52756      345.76331      9.5930789     -0.11874938     1149409.3      142.75338      205.15704     -0.33230987     62.403662      19            -0.48945416     0.0068523009 
     18000     1290305   0.11967598    -2.4396047     -2.2600908     -0.0036944448  -0.32338216    -0.01787157     346.51879      345.76331      9.5930789     -0.11498273     1149380.2      142.75338      205.15704     -0.37222682     62.403662      19            -0.48945416     0.0076753972 
     19000     1290305   0.12036436    -2.4390613     -2.2585149      0.00067467001 -0.31268534    -0.015864641    346.52129      345.76331      9.5930789     -0.10929177     1149388.5      142.75338      205.15704     -0.28442452     62.403662      19            -0.48945416     0.0058648948 
     20000     1290305   0.12002673    -2.4395473     -2.2595073     -0.0067203904  -0.31690951    -0.015266294    346.54073      345.76331      9.5930789     -0.1129654      1149453        142.75338      205.15704     -0.31567277     62.403662      19            -0.48945416     0.0065092405 
Loop time of 126.868 on 6 procs for 10000 steps with 1290305 atoms

Performance: 34051.178 tau/day, 78.822 timesteps/s
99.0% CPU use with 6 MPI tasks x no OpenMP threads

MPI task timing breakdown:
Section |  min time  |  avg time  |  max time  |%varavg| %total
---------------------------------------------------------------
Pair    | 15.709     | 15.93      | 16.317     |   5.2 | 12.56
Neigh   | 0.23208    | 0.25656    | 0.27443    |   2.8 |  0.20
Comm    | 12.531     | 16.192     | 17.892     |  42.6 | 12.76
Output  | 0.083917   | 0.083987   | 0.084147   |   0.0 |  0.07
Modify  | 88.131     | 89.212     | 93.208     |  19.0 | 70.32
Other   |            | 5.193      |            |       |  4.09

Nlocal:         215051 ave      216046 max      213124 min
Histogram: 2 0 0 0 0 0 0 0 0 4
Nghost:        84306.3 ave       85154 max       82671 min
Histogram: 2 0 0 0 0 0 0 0 0 4
Neighs:              0 ave           0 max           0 min
Histogram: 6 0 0 0 0 0 0 0 0 0

Total # of neighbors = -6
Ave neighs/atom = -4.6500634e-06
Neighbor list builds = 500
Dangerous builds = 500
variable cracktipold equal v_cracktipl

next        j

jump        in.notch delete
variable   j loop 10000


###########Obtain the crack length here##################
run     0
  generated 0 of 1 mixed pair_coeff terms from geometric mixing rule
Per MPI rank memory allocation (min/avg/max) = 154.7 | 155.2 | 155.5 Mbytes
   Step        Atoms         Temp          PotEng         TotEng          Pxx            Pyy            Pzz             Lx             Ly             Lz           Press          Volume        v_xcmin        v_xcmax      v_avgpressy   v_cracklength   v_targetsif       v_sif           c_p      
     20000     1290305   0.12002673    -2.4395473     -2.2595073     -0.0067203904  -0.31690951    -0.015266294    346.54073      345.76331      9.5930789     -0.1129654      1149453        142.75338      205.15704     -0.31567277     62.403662      19            -0.48945416     0.0065092405 
Loop time of 3.464e-06 on 6 procs for 0 steps with 1290305 atoms

211.7% CPU use with 6 MPI tasks x no OpenMP threads

MPI task timing breakdown:
Section |  min time  |  avg time  |  max time  |%varavg| %total
---------------------------------------------------------------
Pair    | 0          | 0          | 0          |   0.0 |  0.00
Neigh   | 0          | 0          | 0          |   0.0 |  0.00
Comm    | 0          | 0          | 0          |   0.0 |  0.00
Output  | 0          | 0          | 0          |   0.0 |  0.00
Modify  | 0          | 0          | 0          |   0.0 |  0.00
Other   |            | 3.464e-06  |            |       |100.00

Nlocal:         215051 ave      216046 max      213124 min
Histogram: 2 0 0 0 0 0 0 0 0 4
Nghost:        84306.3 ave       85154 max       82671 min
Histogram: 2 0 0 0 0 0 0 0 0 4
Neighs:              0 ave           0 max           0 min
Histogram: 6 0 0 0 0 0 0 0 0 0

Total # of neighbors = -6
Ave neighs/atom = -4.6500634e-06
Neighbor list builds = 0
Dangerous builds = 0

log	none
variable       sif equal -${avgpressy}*(sqrt(${cracklength}/2))*(sqrt(3.1416))*sqrt(1/cos((3.1416*(${cracklength}/2))/${lxr}))
variable       sif equal --0.315672772630996*(sqrt(${cracklength}/2))*(sqrt(3.1416))*sqrt(1/cos((3.1416*(${cracklength}/2))/${lxr}))
variable       sif equal --0.315672772630996*(sqrt(62.377332090314/2))*(sqrt(3.1416))*sqrt(1/cos((3.1416*(${cracklength}/2))/${lxr}))
variable       sif equal --0.315672772630996*(sqrt(62.377332090314/2))*(sqrt(3.1416))*sqrt(1/cos((3.1416*(62.377332090314/2))/${lxr}))
variable       sif equal --0.315672772630996*(sqrt(62.377332090314/2))*(sqrt(3.1416))*sqrt(1/cos((3.1416*(62.377332090314/2))/346.540733835076))

thermo          1000
run             0
  generated 0 of 1 mixed pair_coeff terms from geometric mixing rule
Per MPI rank memory allocation (min/avg/max) = 154.7 | 155.2 | 155.5 Mbytes
   Step        Atoms         Temp          PotEng         TotEng          Pxx            Pyy            Pzz             Lx             Ly             Lz           Press          Volume        v_xcmin        v_xcmax      v_avgpressy   v_cracklength   v_targetsif       v_sif           c_p      
     20000     1290305   0.12002673    -2.4395473     -2.2595073     -0.0067203904  -0.31690951    -0.015266294    346.54073      345.76331      9.5930789     -0.1129654      1149453        142.76618      205.14351     -0.31567277     62.377332      19             3.1886656      0.0065092405 
Loop time of 3.626e-06 on 6 procs for 0 steps with 1290305 atoms

257.4% CPU use with 6 MPI tasks x no OpenMP threads

MPI task timing breakdown:
Section |  min time  |  avg time  |  max time  |%varavg| %total
---------------------------------------------------------------
Pair    | 0          | 0          | 0          |   0.0 |  0.00
Neigh   | 0          | 0          | 0          |   0.0 |  0.00
Comm    | 0          | 0          | 0          |   0.0 |  0.00
Output  | 0          | 0          | 0          |   0.0 |  0.00
Modify  | 0          | 0          | 0          |   0.0 |  0.00
Other   |            | 3.626e-06  |            |       |100.00

Nlocal:         215051 ave      216046 max      213124 min
Histogram: 2 0 0 0 0 0 0 0 0 4
Nghost:        84306.3 ave       85154 max       82671 min
Histogram: 2 0 0 0 0 0 0 0 0 4
Neighs:              0 ave           0 max           0 min
Histogram: 6 0 0 0 0 0 0 0 0 0

Total # of neighbors = -6
Ave neighs/atom = -4.6500634e-06
Neighbor list builds = 0
Dangerous builds = 0

variable ti equal step
variable myly equal ly
variable	realR equal ${R}*(${targetsif}-${sif})*0.1
variable	realR equal 5e-05*(${targetsif}-${sif})*0.1
variable	realR equal 5e-05*(19-${sif})*0.1
variable	realR equal 5e-05*(19-3.18866558220174)*0.1
print "123456 ${ti} ${cracklength} ${sif} ${realR} ${myly}" append cracklength.dat screen no


run      0
  generated 0 of 1 mixed pair_coeff terms from geometric mixing rule
Per MPI rank memory allocation (min/avg/max) = 154.7 | 155.2 | 155.5 Mbytes
   Step        Atoms         Temp          PotEng         TotEng          Pxx            Pyy            Pzz             Lx             Ly             Lz           Press          Volume        v_xcmin        v_xcmax      v_avgpressy   v_cracklength   v_targetsif       v_sif           c_p      
     20000     1290305   0.12002673    -2.4395473     -2.2595073     -0.0067203904  -0.31690951    -0.015266294    346.54073      345.76331      9.5930789     -0.1129654      1149453        142.76618      205.14351     -0.31567277     62.377332      19             3.1886656      0.0065092405 
Loop time of 3.42017e-06 on 6 procs for 0 steps with 1290305 atoms

243.7% CPU use with 6 MPI tasks x no OpenMP threads

MPI task timing breakdown:
Section |  min time  |  avg time  |  max time  |%varavg| %total
---------------------------------------------------------------
Pair    | 0          | 0          | 0          |   0.0 |  0.00
Neigh   | 0          | 0          | 0          |   0.0 |  0.00
Comm    | 0          | 0          | 0          |   0.0 |  0.00
Output  | 0          | 0          | 0          |   0.0 |  0.00
Modify  | 0          | 0          | 0          |   0.0 |  0.00
Other   |            | 3.42e-06   |            |       |100.00

Nlocal:         215051 ave      216046 max      213124 min
Histogram: 2 0 0 0 0 0 0 0 0 4
Nghost:        84306.3 ave       85154 max       82671 min
Histogram: 2 0 0 0 0 0 0 0 0 4
Neighs:              0 ave           0 max           0 min
Histogram: 6 0 0 0 0 0 0 0 0 0

Total # of neighbors = -6
Ave neighs/atom = -4.6500634e-06
Neighbor list builds = 0
Dangerous builds = 0
group           g_3 type 3
0 atoms in group g_3

fix		6 all deform 1 y erate ${realR} units box remap x
fix		6 all deform 1 y erate 7.90566720889913e-05 units box remap x
run		10000
  generated 0 of 1 mixed pair_coeff terms from geometric mixing rule
Per MPI rank memory allocation (min/avg/max) = 154.7 | 155.2 | 155.5 Mbytes
   Step        Atoms         Temp          PotEng         TotEng          Pxx            Pyy            Pzz             Lx             Ly             Lz           Press          Volume        v_xcmin        v_xcmax      v_avgpressy   v_cracklength   v_targetsif       v_sif           c_p      
     20000     1290305   0.12002673    -2.4395473     -2.2595073     -0.0067203904  -0.31690951    -0.015266294    346.54073      345.76331      9.5930789     -0.1129654      1149453        142.76618      205.14351     -0.31567277     62.377332      19             3.1886656      0.0065092405 
     21000     1290305   0.1197969     -2.4395378     -2.2598426      0.0030778359  -0.34737869    -0.020221821    346.48603      345.89999      9.5930789     -0.12150756     1149725.8      142.76618      205.14351     -0.37906184     62.377332      19             3.1886656      0.0078163367 
     22000     1290305   0.12032202    -2.4388404     -2.2583575     -0.0010203443  -0.38583883    -0.033721704    346.44673      346.03666      9.5930789     -0.14019363     1150049.7      142.76618      205.14351     -0.41052969     62.377332      19             3.1886656      0.0084652105 
     23000     1290305   0.11997669    -2.439078      -2.2591131     -0.005055148   -0.41734846    -0.041484571    346.41945      346.17334      9.5930789     -0.15462939     1150413.3      142.76618      205.14351     -0.39086473     62.377332      19             3.1886656      0.0080597148 
     24000     1290305   0.11977524    -2.4390291     -2.2593664     -0.002435131   -0.45722146    -0.050084418    346.37795      346.31001      9.5930789     -0.16991367     1150729.6      142.76618      205.14351     -0.44086983     62.377332      19             3.1886656      0.0090908307 
     25000     1290305   0.12025784    -2.4384237     -2.2580371      0.0031873302  -0.48493552    -0.05633609     346.33529      346.44668      9.5930789     -0.17936143     1151042        142.76618      205.14351     -0.53282252     62.377332      19             3.1886656      0.010986915  
     26000     1290305   0.11997064    -2.4385765     -2.2586207      0.0016031624  -0.51920786    -0.062084118    346.29561      346.58336      9.5930789     -0.1932296      1151364.2      142.76618      205.14351     -0.56078705     62.377332      19             3.1886656      0.01156355   
     27000     1290305   0.11982723    -2.4384351     -2.2586944     -0.0011939572  -0.54989375    -0.069024115    346.24976      346.72003      9.5930789     -0.20670394     1151665.7      142.76618      205.14351     -0.61279164     62.377332      19             3.1886656      0.012635895  
     28000     1290305   0.12013443    -2.4379444     -2.2577429      0.00060135055 -0.58200732    -0.079201105    346.19996      346.85671      9.5930789     -0.22020236     1151954        142.76618      205.14351     -0.53613777     62.377332      19             3.1886656      0.011055276  
     29000     1290305   0.11993409    -2.4380172     -2.2581162      0.0026601877  -0.61742842    -0.087695503    346.16806      346.99338      9.5930789     -0.23415458     1152301.7      142.76618      205.14351     -0.64934008     62.377332      19             3.1886656      0.013389532  
     30000     1290305   0.11983493    -2.437849      -2.2580968     -0.012523288   -0.65529603    -0.098277795    346.152        347.13006      9.5930789     -0.25536571     1152702.1      142.76618      205.14351     -0.6849705      62.377332      19             3.1886656      0.014124239  
Loop time of 149.743 on 6 procs for 10000 steps with 1290305 atoms

Performance: 28849.334 tau/day, 66.781 timesteps/s
99.1% CPU use with 6 MPI tasks x no OpenMP threads

MPI task timing breakdown:
Section |  min time  |  avg time  |  max time  |%varavg| %total
---------------------------------------------------------------
Pair    | 15.563     | 15.816     | 16.325     |   6.7 | 10.56
Neigh   | 0.2234     | 0.24908    | 0.26924    |   3.2 |  0.17
Comm    | 12.794     | 16.017     | 17.72      |  38.7 | 10.70
Output  | 0.082612   | 0.083398   | 0.083665   |   0.1 |  0.06
Modify  | 111.25     | 112.41     | 116.31     |  16.6 | 75.07
Other   |            | 5.172      |            |       |  3.45

Nlocal:         215051 ave      216036 max      213084 min
Histogram: 2 0 0 0 0 0 0 0 0 4
Nghost:        84287.7 ave       85130 max       82631 min
Histogram: 2 0 0 0 0 0 0 0 0 4
Neighs:              0 ave           0 max           0 min
Histogram: 6 0 0 0 0 0 0 0 0 0

Total # of neighbors = -6
Ave neighs/atom = -4.6500634e-06
Neighbor list builds = 500
Dangerous builds = 500
unfix		6

#After tension, run more at zero strain rate in a holding state

run 10000
  generated 0 of 1 mixed pair_coeff terms from geometric mixing rule
Per MPI rank memory allocation (min/avg/max) = 154.7 | 155.2 | 155.5 Mbytes
   Step        Atoms         Temp          PotEng         TotEng          Pxx            Pyy            Pzz             Lx             Ly             Lz           Press          Volume        v_xcmin        v_xcmax      v_avgpressy   v_cracklength   v_targetsif       v_sif           c_p      
     30000     1290305   0.11983493    -2.4378487     -2.2580965     -0.012550664   -0.65537315    -0.098306142    346.152        347.13006      9.5930789     -0.25540998     1152702.1      142.76618      205.14351     -0.68504977     62.377332      19             3.1886656      0.014125874  
     31000     1290305   0.12017074    -2.437746      -2.25749       -2.4632971e-06 -0.64051458    -0.092789938    346.12285      347.13006      9.5930789     -0.24443566     1152605        142.76618      205.14351     -0.65239196     62.377332      19             3.1886656      0.013452463  
     32000     1290305   0.11994559    -2.4378672     -2.2579489     -0.0047530086  -0.63653458    -0.095839573    346.14705      347.13006      9.5930789     -0.24570905     1152685.6      142.76618      205.14351     -0.63690754     62.377332      19             3.1886656      0.013133171  
     33000     1290305   0.11981477    -2.4377028     -2.2579808     -0.0051356939  -0.62352738    -0.087747752    346.14409      347.13006      9.5930789     -0.23880361     1152675.8      142.76618      205.14351     -0.64689555     62.377332      19             3.1886656      0.013339125  
     34000     1290305   0.12003497    -2.4375081     -2.2574558     -0.0023722378  -0.61430364    -0.086356471    346.13558      347.13006      9.5930789     -0.23434411     1152647.4      142.76618      205.14351     -0.62464554     62.377332      19             3.1886656      0.012880325  
     35000     1290305   0.12001327    -2.4378905     -2.2578707     -0.0026523775  -0.61475293    -0.088882894    346.1542       347.13006      9.5930789     -0.2354294      1152709.4      142.76618      205.14351     -0.62250172     62.377332      19             3.1886656      0.012836119  
     36000     1290305   0.11996767    -2.4378784     -2.257927      -0.0027713498  -0.6055369     -0.083926081    346.15072      347.13006      9.5930789     -0.23074478     1152697.8      142.76618      205.14351     -0.60195419     62.377332      19             3.1886656      0.012412425  
     37000     1290305   0.12014954    -2.437655      -2.2574308      0.0030744044  -0.60215869    -0.081885807    346.1375       347.13006      9.5930789     -0.22699003     1152653.8      142.76618      205.14351     -0.59615892     62.377332      19             3.1886656      0.012292925  
     38000     1290305   0.11994965    -2.4377858     -2.2578615     -0.0014856558  -0.60575433    -0.08164024     346.14947      347.13006      9.5930789     -0.22962674     1152693.7      142.76618      205.14351     -0.63368869     62.377332      19             3.1886656      0.013066797  
     39000     1290305   0.12005093    -2.4378456     -2.2577693     -0.00065197494 -0.59517686    -0.0753189      346.15338      347.13006      9.5930789     -0.22371591     1152706.7      142.76618      205.14351     -0.58434425     62.377332      19             3.1886656      0.012049304  
     40000     1290305   0.12019874    -2.4377599     -2.2574619     -0.003316649   -0.5948072     -0.083114522    346.16061      347.13006      9.5930789     -0.22707946     1152730.8      142.76618      205.14351     -0.58097111     62.377332      19             3.1886656      0.011979749  
Loop time of 126.653 on 6 procs for 10000 steps with 1290305 atoms

Performance: 34108.840 tau/day, 78.956 timesteps/s
99.0% CPU use with 6 MPI tasks x no OpenMP threads

MPI task timing breakdown:
Section |  min time  |  avg time  |  max time  |%varavg| %total
---------------------------------------------------------------
Pair    | 15.619     | 15.918     | 16.439     |   6.9 | 12.57
Neigh   | 0.23345    | 0.25646    | 0.27381    |   2.8 |  0.20
Comm    | 12.885     | 16.062     | 17.8       |  38.0 | 12.68
Output  | 0.083429   | 0.08351    | 0.083677   |   0.0 |  0.07
Modify  | 88.093     | 89.174     | 93.058     |  18.5 | 70.41
Other   |            | 5.159      |            |       |  4.07

Nlocal:         215051 ave      216057 max      213073 min
Histogram: 2 0 0 0 0 0 0 0 0 4
Nghost:        84271.2 ave       85106 max       82625 min
Histogram: 2 0 0 0 0 0 0 0 0 4
Neighs:              0 ave           0 max           0 min
Histogram: 6 0 0 0 0 0 0 0 0 0

Total # of neighbors = -6
Ave neighs/atom = -4.6500634e-06
Neighbor list builds = 500
Dangerous builds = 500
variable cracktipold equal v_cracktipl

next        j

jump        in.notch delete
variable   j loop 10000


###########Obtain the crack length here##################
run     0
  generated 0 of 1 mixed pair_coeff terms from geometric mixing rule
Per MPI rank memory allocation (min/avg/max) = 154.7 | 155.2 | 155.5 Mbytes
   Step        Atoms         Temp          PotEng         TotEng          Pxx            Pyy            Pzz             Lx             Ly             Lz           Press          Volume        v_xcmin        v_xcmax      v_avgpressy   v_cracklength   v_targetsif       v_sif           c_p      
     40000     1290305   0.12019874    -2.4377599     -2.2574619     -0.003316649   -0.5948072     -0.083114522    346.16061      347.13006      9.5930789     -0.22707946     1152730.8      142.76618      205.14351     -0.58097111     62.377332      19             3.1886656      0.011979749  
Loop time of 3.70717e-06 on 6 procs for 0 steps with 1290305 atoms

184.3% CPU use with 6 MPI tasks x no OpenMP threads

MPI task timing breakdown:
Section |  min time  |  avg time  |  max time  |%varavg| %total
---------------------------------------------------------------
Pair    | 0          | 0          | 0          |   0.0 |  0.00
Neigh   | 0          | 0          | 0          |   0.0 |  0.00
Comm    | 0          | 0          | 0          |   0.0 |  0.00
Output  | 0          | 0          | 0          |   0.0 |  0.00
Modify  | 0          | 0          | 0          |   0.0 |  0.00
Other   |            | 3.707e-06  |            |       |100.00

Nlocal:         215051 ave      216057 max      213073 min
Histogram: 2 0 0 0 0 0 0 0 0 4
Nghost:        84271.2 ave       85106 max       82625 min
Histogram: 2 0 0 0 0 0 0 0 0 4
Neighs:              0 ave           0 max           0 min
Histogram: 6 0 0 0 0 0 0 0 0 0

Total # of neighbors = -6
Ave neighs/atom = -4.6500634e-06
Neighbor list builds = 0
Dangerous builds = 0

log	none
variable       sif equal -${avgpressy}*(sqrt(${cracklength}/2))*(sqrt(3.1416))*sqrt(1/cos((3.1416*(${cracklength}/2))/${lxr}))
variable       sif equal --0.580971106537205*(sqrt(${cracklength}/2))*(sqrt(3.1416))*sqrt(1/cos((3.1416*(${cracklength}/2))/${lxr}))
variable       sif equal --0.580971106537205*(sqrt(64.039712245611/2))*(sqrt(3.1416))*sqrt(1/cos((3.1416*(${cracklength}/2))/${lxr}))
variable       sif equal --0.580971106537205*(sqrt(64.039712245611/2))*(sqrt(3.1416))*sqrt(1/cos((3.1416*(64.039712245611/2))/${lxr}))
variable       sif equal --0.580971106537205*(sqrt(64.039712245611/2))*(sqrt(3.1416))*sqrt(1/cos((3.1416*(64.039712245611/2))/346.160606733032))

thermo          1000
run             0
  generated 0 of 1 mixed pair_coeff terms from geometric mixing rule
Per MPI rank memory allocation (min/avg/max) = 154.7 | 155.2 | 155.5 Mbytes
   Step        Atoms         Temp          PotEng         TotEng          Pxx            Pyy            Pzz             Lx             Ly             Lz           Press          Volume        v_xcmin        v_xcmax      v_avgpressy   v_cracklength   v_targetsif       v_sif           c_p      
     40000     1290305   0.12019874    -2.4377599     -2.2574619     -0.003316649   -0.5948072     -0.083114522    346.16061      347.13006      9.5930789     -0.22707946     1152730.8      142.79944      206.83915     -0.58097111     64.039712      19             5.9530624      0.011979749  
Loop time of 3.88517e-06 on 6 procs for 0 steps with 1290305 atoms

223.1% CPU use with 6 MPI tasks x no OpenMP threads

MPI task timing breakdown:
Section |  min time  |  avg time  |  max time  |%varavg| %total
---------------------------------------------------------------
Pair    | 0          | 0          | 0          |   0.0 |  0.00
Neigh   | 0          | 0          | 0          |   0.0 |  0.00
Comm    | 0          | 0          | 0          |   0.0 |  0.00
Output  | 0          | 0          | 0          |   0.0 |  0.00
Modify  | 0          | 0          | 0          |   0.0 |  0.00
Other   |            | 3.885e-06  |            |       |100.00

Nlocal:         215051 ave      216057 max      213073 min
Histogram: 2 0 0 0 0 0 0 0 0 4
Nghost:        84271.2 ave       85106 max       82625 min
Histogram: 2 0 0 0 0 0 0 0 0 4
Neighs:              0 ave           0 max           0 min
Histogram: 6 0 0 0 0 0 0 0 0 0

Total # of neighbors = -6
Ave neighs/atom = -4.6500634e-06
Neighbor list builds = 0
Dangerous builds = 0

variable ti equal step
variable myly equal ly
variable	realR equal ${R}*(${targetsif}-${sif})*0.1
variable	realR equal 5e-05*(${targetsif}-${sif})*0.1
variable	realR equal 5e-05*(19-${sif})*0.1
variable	realR equal 5e-05*(19-5.95306236968543)*0.1
print "123456 ${ti} ${cracklength} ${sif} ${realR} ${myly}" append cracklength.dat screen no


run      0
  generated 0 of 1 mixed pair_coeff terms from geometric mixing rule
Per MPI rank memory allocation (min/avg/max) = 154.7 | 155.2 | 155.5 Mbytes
   Step        Atoms         Temp          PotEng         TotEng          Pxx            Pyy            Pzz             Lx             Ly             Lz           Press          Volume        v_xcmin        v_xcmax      v_avgpressy   v_cracklength   v_targetsif       v_sif           c_p      
     40000     1290305   0.12019874    -2.4377599     -2.2574619     -0.003316649   -0.5948072     -0.083114522    346.16061      347.13006      9.5930789     -0.22707946     1152730.8      142.79944      206.83915     -0.58097111     64.039712      19             5.9530624      0.011979749  
Loop time of 3.66933e-06 on 6 procs for 0 steps with 1290305 atoms

208.9% CPU use with 6 MPI tasks x no OpenMP threads

MPI task timing breakdown:
Section |  min time  |  avg time  |  max time  |%varavg| %total
---------------------------------------------------------------
Pair    | 0          | 0          | 0          |   0.0 |  0.00
Neigh   | 0          | 0          | 0          |   0.0 |  0.00
Comm    | 0          | 0          | 0          |   0.0 |  0.00
Output  | 0          | 0          | 0          |   0.0 |  0.00
Modify  | 0          | 0          | 0          |   0.0 |  0.00
Other   |            | 3.669e-06  |            |       |100.00

Nlocal:         215051 ave      216057 max      213073 min
Histogram: 2 0 0 0 0 0 0 0 0 4
Nghost:        84271.2 ave       85106 max       82625 min
Histogram: 2 0 0 0 0 0 0 0 0 4
Neighs:              0 ave           0 max           0 min
Histogram: 6 0 0 0 0 0 0 0 0 0

Total # of neighbors = -6
Ave neighs/atom = -4.6500634e-06
Neighbor list builds = 0
Dangerous builds = 0
group           g_3 type 3
0 atoms in group g_3

fix		6 all deform 1 y erate ${realR} units box remap x
fix		6 all deform 1 y erate 6.52346881515729e-05 units box remap x
run		10000
  generated 0 of 1 mixed pair_coeff terms from geometric mixing rule
Per MPI rank memory allocation (min/avg/max) = 154.7 | 155.2 | 155.5 Mbytes
   Step        Atoms         Temp          PotEng         TotEng          Pxx            Pyy            Pzz             Lx             Ly             Lz           Press          Volume        v_xcmin        v_xcmax      v_avgpressy   v_cracklength   v_targetsif       v_sif           c_p      
     40000     1290305   0.12019874    -2.4377599     -2.2574619     -0.003316649   -0.5948072     -0.083114522    346.16061      347.13006      9.5930789     -0.22707946     1152730.8      142.79944      206.83915     -0.58097111     64.039712      19             5.9530624      0.011979749  
     41000     1290305   0.12005221    -2.4377876     -2.2577095     -0.00091027797 -0.6203148     -0.086854009    346.12435      347.24328      9.5930789     -0.23602636     1152986        142.79944      206.83915     -0.62507061     64.039712      19             5.9530624      0.01288909   
     42000     1290305   0.11997947    -2.4375348     -2.2575657     -0.0024605159  -0.65015089    -0.09590373     346.07071      347.35651      9.5930789     -0.24950505     1153183.2      142.79944      206.83915     -0.67041714     64.039712      19             5.9530624      0.013824146  
     43000     1290305   0.12000812    -2.4370569     -2.2570448     -0.0041700131  -0.68115205    -0.1031756      346.04348      347.46973      9.5930789     -0.26283255     1153468.3      142.79944      206.83915     -0.6630436      64.039712      19             5.9530624      0.013672102  
     44000     1290305   0.11995875    -2.4371591     -2.2572211     -0.002527123   -0.70420503    -0.10844027     346.01172      347.58296      9.5930789     -0.27172414     1153738.3      142.79944      206.83915     -0.66890869     64.039712      19             5.9530624      0.013793041  
     45000     1290305   0.11996247    -2.4370258     -2.2570823      0.0017293407  -0.73022278    -0.11021341     345.94939      347.69618      9.5930789     -0.27956895     1153906.2      142.79944      206.83915     -0.77480004     64.039712      19             5.9530624      0.015976543  
     46000     1290305   0.12006541    -2.4365436     -2.2564456     -0.0080466233  -0.75620401    -0.12045567     345.94471      347.8094       9.5930789     -0.2949021      1154266.4      142.79944      206.83915     -0.78867262     64.039712      19             5.9530624      0.016262599  
     47000     1290305   0.11994518    -2.4366534     -2.2567358     -0.00512983    -0.78839026    -0.12789683     345.90262      347.92263      9.5930789     -0.30713897     1154501.6      142.79944      206.83915     -0.791504       64.039712      19             5.9530624      0.016320983  
     48000     1290305   0.11999526    -2.4365493     -2.2565566      0.0050009327  -0.80624845    -0.1336283      345.83871      348.03585      9.5930789     -0.31162527     1154663.9      142.79944      206.83915     -0.82430594     64.039712      19             5.9530624      0.016997366  
     49000     1290305   0.12001284    -2.4359202     -2.2559011      0.0017008553  -0.83530124    -0.13718029     345.80527      348.14908      9.5930789     -0.32359356     1154927.9      142.79944      206.83915     -0.87781746     64.039712      19             5.9530624      0.018100785  
     50000     1290305   0.11990554    -2.4360106     -2.2561524     -0.0029994535  -0.85875166    -0.14726898     345.77931      348.2623       9.5930789     -0.33634003     1155216.8      142.79944      206.83915     -0.87306902     64.039712      19             5.9530624      0.018002871  
Loop time of 149.705 on 6 procs for 10000 steps with 1290305 atoms

Performance: 28856.733 tau/day, 66.798 timesteps/s
99.1% CPU use with 6 MPI tasks x no OpenMP threads

MPI task timing breakdown:
Section |  min time  |  avg time  |  max time  |%varavg| %total
---------------------------------------------------------------
Pair    | 15.525     | 15.795     | 16.291     |   6.7 | 10.55
Neigh   | 0.22107    | 0.24845    | 0.26942    |   3.4 |  0.17
Comm    | 12.727     | 15.963     | 17.536     |  38.7 | 10.66
Output  | 0.083881   | 0.084689   | 0.084969   |   0.1 |  0.06
Modify  | 111.28     | 112.42     | 116.28     |  16.4 | 75.10
Other   |            | 5.191      |            |       |  3.47

Nlocal:         215051 ave      216072 max      213062 min
Histogram: 2 0 0 0 0 0 0 0 0 4
Nghost:        84283.2 ave       85160 max       82619 min
Histogram: 2 0 0 0 0 0 0 0 0 4
Neighs:              0 ave           0 max           0 min
Histogram: 6 0 0 0 0 0 0 0 0 0

Total # of neighbors = -6
Ave neighs/atom = -4.6500634e-06
Neighbor list builds = 500
Dangerous builds = 500
unfix		6

#After tension, run more at zero strain rate in a holding state

run 10000
  generated 0 of 1 mixed pair_coeff terms from geometric mixing rule
Per MPI rank memory allocation (min/avg/max) = 154.7 | 155.2 | 155.5 Mbytes
   Step        Atoms         Temp          PotEng         TotEng          Pxx            Pyy            Pzz             Lx             Ly             Lz           Press          Volume        v_xcmin        v_xcmax      v_avgpressy   v_cracklength   v_targetsif       v_sif           c_p      
     50000     1290305   0.11990554    -2.4360103     -2.2561522     -0.003009899   -0.85882182    -0.14728402     345.77931      348.2623       9.5930789     -0.33637191     1155216.8      142.79944      206.83915     -0.87313439     64.039712      19             5.9530624      0.018004219  
     51000     1290305   0.11992765    -2.435928      -2.2560367     -0.0028294921  -0.84574829    -0.14387078     345.79241      348.2623       9.5930789     -0.33081619     1155260.5      142.79944      206.83915     -0.85297099     64.039712      19             5.9530624      0.017588445  
     52000     1290305   0.120071      -2.4358064     -2.2557         0.0034905468  -0.8421378     -0.14135702     345.78341      348.2623       9.5930789     -0.32666809     1155230.5      142.79944      206.83915     -0.85959083     64.039712      19             5.9530624      0.017724948  
     53000     1290305   0.11993738    -2.4361618     -2.2562559      0.0011917272  -0.83301856    -0.1366177      345.78242      348.2623       9.5930789     -0.32281485     1155227.2      142.79944      206.83915     -0.83443863     64.039712      19             5.9530624      0.017206304  
     54000     1290305   0.11994498    -2.4359009     -2.2559835     -0.00048676359 -0.82772617    -0.13860289     345.78925      348.2623       9.5930789     -0.32227194     1155250        142.79944      206.83915     -0.86336152     64.039712      19             5.9530624      0.0178027    
     55000     1290305   0.12000512    -2.4357879     -2.2557804      0.00048502751 -0.82149993    -0.13561356     345.77919      348.2623       9.5930789     -0.31887615     1155216.4      142.79944      206.83915     -0.78732655     64.039712      19             5.9530624      0.016234843  
     56000     1290305   0.11993442    -2.436032      -2.2561305      0.0021995824  -0.81629013    -0.13487936     345.78898      348.2623       9.5930789     -0.3163233      1155249.1      142.79944      206.83915     -0.78640159     64.039712      19             5.9530624      0.01621577   
     57000     1290305   0.12010088    -2.4360053     -2.2558541      0.0022898437  -0.80828209    -0.1347507      345.7967       348.2623       9.5930789     -0.31358098     1155274.9      142.79944      206.83915     -0.78891212     64.039712      19             5.9530624      0.016267538  
     58000     1290305   0.12001917    -2.4357885     -2.2557599      0.0049934515  -0.8046201     -0.13235682     345.78276      348.2623       9.5930789     -0.31066116     1155228.3      142.79944      206.83915     -0.84902105     64.039712      19             5.9530624      0.017506997  
     59000     1290305   0.11994602    -2.4360342     -2.2561153     -0.002844007   -0.80181449    -0.13933491     345.80336      348.2623       9.5930789     -0.31466447     1155297.1      142.79944      206.83915     -0.79354795     64.039712      19             5.9530624      0.016363129  
     60000     1290305   0.12000917    -2.4358527     -2.255839      -0.0062404356  -0.79470232    -0.13655343     345.81322      348.2623       9.5930789     -0.31249873     1155330.1      142.79944      206.83915     -0.85414097     64.039712      19             5.9530624      0.017612571  
Loop time of 126.685 on 6 procs for 10000 steps with 1290305 atoms

Performance: 34100.282 tau/day, 78.936 timesteps/s
99.0% CPU use with 6 MPI tasks x no OpenMP threads

MPI task timing breakdown:
Section |  min time  |  avg time  |  max time  |%varavg| %total
---------------------------------------------------------------
Pair    | 15.605     | 15.953     | 16.449     |   6.9 | 12.59
Neigh   | 0.2333     | 0.25743    | 0.27624    |   2.9 |  0.20
Comm    | 12.934     | 16.007     | 17.77      |  37.1 | 12.64
Output  | 0.084221   | 0.084298   | 0.08446    |   0.0 |  0.07
Modify  | 88.12      | 89.206     | 93.084     |  18.5 | 70.42
Other   |            | 5.177      |            |       |  4.09

Nlocal:         215051 ave      216056 max      213065 min
Histogram: 2 0 0 0 0 0 0 0 0 4
Nghost:          84262 ave       85112 max       82634 min
Histogram: 2 0 0 0 0 0 0 0 0 4
Neighs:              0 ave           0 max           0 min
Histogram: 6 0 0 0 0 0 0 0 0 0

Total # of neighbors = -6
Ave neighs/atom = -4.6500634e-06
Neighbor list builds = 500
Dangerous builds = 500
variable cracktipold equal v_cracktipl

next        j

jump        in.notch delete
variable   j loop 10000


###########Obtain the crack length here##################
run     0
  generated 0 of 1 mixed pair_coeff terms from geometric mixing rule
Per MPI rank memory allocation (min/avg/max) = 154.7 | 155.2 | 155.5 Mbytes
   Step        Atoms         Temp          PotEng         TotEng          Pxx            Pyy            Pzz             Lx             Ly             Lz           Press          Volume        v_xcmin        v_xcmax      v_avgpressy   v_cracklength   v_targetsif       v_sif           c_p      
     60000     1290305   0.12000917    -2.4358527     -2.255839      -0.0062404356  -0.79470232    -0.13655343     345.81322      348.2623       9.5930789     -0.31249873     1155330.1      142.79944      206.83915     -0.85414097     64.039712      19             5.9530624      0.017612571  
Loop time of 4.26117e-06 on 6 procs for 0 steps with 1290305 atoms

187.7% CPU use with 6 MPI tasks x no OpenMP threads

MPI task timing breakdown:
Section |  min time  |  avg time  |  max time  |%varavg| %total
---------------------------------------------------------------
Pair    | 0          | 0          | 0          |   0.0 |  0.00
Neigh   | 0          | 0          | 0          |   0.0 |  0.00
Comm    | 0          | 0          | 0          |   0.0 |  0.00
Output  | 0          | 0          | 0          |   0.0 |  0.00
Modify  | 0          | 0          | 0          |   0.0 |  0.00
Other   |            | 4.261e-06  |            |       |100.00

Nlocal:         215051 ave      216056 max      213065 min
Histogram: 2 0 0 0 0 0 0 0 0 4
Nghost:          84262 ave       85112 max       82634 min
Histogram: 2 0 0 0 0 0 0 0 0 4
Neighs:              0 ave           0 max           0 min
Histogram: 6 0 0 0 0 0 0 0 0 0

Total # of neighbors = -6
Ave neighs/atom = -4.6500634e-06
Neighbor list builds = 0
Dangerous builds = 0

log	none
variable       sif equal -${avgpressy}*(sqrt(${cracklength}/2))*(sqrt(3.1416))*sqrt(1/cos((3.1416*(${cracklength}/2))/${lxr}))
variable       sif equal --0.854140971888722*(sqrt(${cracklength}/2))*(sqrt(3.1416))*sqrt(1/cos((3.1416*(${cracklength}/2))/${lxr}))
variable       sif equal --0.854140971888722*(sqrt(65.704512301058/2))*(sqrt(3.1416))*sqrt(1/cos((3.1416*(${cracklength}/2))/${lxr}))
variable       sif equal --0.854140971888722*(sqrt(65.704512301058/2))*(sqrt(3.1416))*sqrt(1/cos((3.1416*(65.704512301058/2))/${lxr}))
variable       sif equal --0.854140971888722*(sqrt(65.704512301058/2))*(sqrt(3.1416))*sqrt(1/cos((3.1416*(65.704512301058/2))/345.813222637148))

thermo          1000
run             0
  generated 0 of 1 mixed pair_coeff terms from geometric mixing rule
Per MPI rank memory allocation (min/avg/max) = 154.7 | 155.2 | 155.5 Mbytes
   Step        Atoms         Temp          PotEng         TotEng          Pxx            Pyy            Pzz             Lx             Ly             Lz           Press          Volume        v_xcmin        v_xcmax      v_avgpressy   v_cracklength   v_targetsif       v_sif           c_p      
     60000     1290305   0.12000917    -2.4358527     -2.255839      -0.0062404356  -0.79470232    -0.13655343     345.81322      348.2623       9.5930789     -0.31249873     1155330.1      141.10077      206.80528     -0.85414097     65.704512      19             8.8757635      0.017612571  
Loop time of 3.70717e-06 on 6 procs for 0 steps with 1290305 atoms

229.3% CPU use with 6 MPI tasks x no OpenMP threads

MPI task timing breakdown:
Section |  min time  |  avg time  |  max time  |%varavg| %total
---------------------------------------------------------------
Pair    | 0          | 0          | 0          |   0.0 |  0.00
Neigh   | 0          | 0          | 0          |   0.0 |  0.00
Comm    | 0          | 0          | 0          |   0.0 |  0.00
Output  | 0          | 0          | 0          |   0.0 |  0.00
Modify  | 0          | 0          | 0          |   0.0 |  0.00
Other   |            | 3.707e-06  |            |       |100.00

Nlocal:         215051 ave      216056 max      213065 min
Histogram: 2 0 0 0 0 0 0 0 0 4
Nghost:          84262 ave       85112 max       82634 min
Histogram: 2 0 0 0 0 0 0 0 0 4
Neighs:              0 ave           0 max           0 min
Histogram: 6 0 0 0 0 0 0 0 0 0

Total # of neighbors = -6
Ave neighs/atom = -4.6500634e-06
Neighbor list builds = 0
Dangerous builds = 0

variable ti equal step
variable myly equal ly
variable	realR equal ${R}*(${targetsif}-${sif})*0.1
variable	realR equal 5e-05*(${targetsif}-${sif})*0.1
variable	realR equal 5e-05*(19-${sif})*0.1
variable	realR equal 5e-05*(19-8.87576345861782)*0.1
print "123456 ${ti} ${cracklength} ${sif} ${realR} ${myly}" append cracklength.dat screen no


run      0
  generated 0 of 1 mixed pair_coeff terms from geometric mixing rule
Per MPI rank memory allocation (min/avg/max) = 154.7 | 155.2 | 155.5 Mbytes
   Step        Atoms         Temp          PotEng         TotEng          Pxx            Pyy            Pzz             Lx             Ly             Lz           Press          Volume        v_xcmin        v_xcmax      v_avgpressy   v_cracklength   v_targetsif       v_sif           c_p      
     60000     1290305   0.12000917    -2.4358527     -2.255839      -0.0062404356  -0.79470232    -0.13655343     345.81322      348.2623       9.5930789     -0.31249873     1155330.1      141.10077      206.80528     -0.85414097     65.704512      19             8.8757635      0.017612571  
Loop time of 3.74867e-06 on 6 procs for 0 steps with 1290305 atoms

209.0% CPU use with 6 MPI tasks x no OpenMP threads

MPI task timing breakdown:
Section |  min time  |  avg time  |  max time  |%varavg| %total
---------------------------------------------------------------
Pair    | 0          | 0          | 0          |   0.0 |  0.00
Neigh   | 0          | 0          | 0          |   0.0 |  0.00
Comm    | 0          | 0          | 0          |   0.0 |  0.00
Output  | 0          | 0          | 0          |   0.0 |  0.00
Modify  | 0          | 0          | 0          |   0.0 |  0.00
Other   |            | 3.749e-06  |            |       |100.00

Nlocal:         215051 ave      216056 max      213065 min
Histogram: 2 0 0 0 0 0 0 0 0 4
Nghost:          84262 ave       85112 max       82634 min
Histogram: 2 0 0 0 0 0 0 0 0 4
Neighs:              0 ave           0 max           0 min
Histogram: 6 0 0 0 0 0 0 0 0 0

Total # of neighbors = -6
Ave neighs/atom = -4.6500634e-06
Neighbor list builds = 0
Dangerous builds = 0
group           g_3 type 3
0 atoms in group g_3

fix		6 all deform 1 y erate ${realR} units box remap x
fix		6 all deform 1 y erate 5.06211827069109e-05 units box remap x
run		10000
  generated 0 of 1 mixed pair_coeff terms from geometric mixing rule
Per MPI rank memory allocation (min/avg/max) = 154.7 | 155.2 | 155.5 Mbytes
   Step        Atoms         Temp          PotEng         TotEng          Pxx            Pyy            Pzz             Lx             Ly             Lz           Press          Volume        v_xcmin        v_xcmax      v_avgpressy   v_cracklength   v_targetsif       v_sif           c_p      
     60000     1290305   0.12000917    -2.4358527     -2.255839      -0.0062404356  -0.79470232    -0.13655343     345.81322      348.2623       9.5930789     -0.31249873     1155330.1      141.10077      206.80528     -0.85414097     65.704512      19             8.8757635      0.017612571  
     61000     1290305   0.12000636    -2.4356126     -2.2556031      0.0018058578  -0.81613358    -0.1316475      345.76547      348.35045      9.5930789     -0.31532507     1155462.9      141.10077      206.80528     -0.83655507     65.704512      19             8.8757635      0.017249946  
     62000     1290305   0.11985859    -2.4356333     -2.2558455     -0.0012434124  -0.84364036    -0.14415601     345.73658      348.4386       9.5930789     -0.32967993     1155658.7      141.10077      206.80528     -0.84982512     65.704512      19             8.8757635      0.017523577  
     63000     1290305   0.12001741    -2.4354011     -2.2553751      0.0023870259  -0.8631872     -0.14923979     345.6968       348.52674      9.5930789     -0.33667999     1155818.1      141.10077      206.80528     -0.87823367     65.704512      19             8.8757635      0.018109367  
     64000     1290305   0.12007536    -2.4352628     -2.2551498     -0.0053453915  -0.88446414    -0.15457701     345.68449      348.61489      9.5930789     -0.34812885     1156069.3      141.10077      206.80528     -0.87486936     65.704512      19             8.8757635      0.018039994  
     65000     1290305   0.1199456     -2.435261      -2.2553427      0.0021787637  -0.89545008    -0.16019464     345.64631      348.70304      9.5930789     -0.35115532     1156233.8      141.10077      206.80528     -0.87423135     65.704512      19             8.8757635      0.018026839  
     66000     1290305   0.12007873    -2.4349954     -2.2548774     -0.0028069863  -0.91408903    -0.16506006     345.63412      348.79119      9.5930789     -0.36065202     1156485.3      141.10077      206.80528     -0.88483967     65.704512      19             8.8757635      0.018245584  
     67000     1290305   0.12000299    -2.4347118     -2.2547074      0.0016807096  -0.93968204    -0.17043136     345.60197      348.87933      9.5930789     -0.36947756     1156670        141.10077      206.80528     -0.92879957     65.704512      19             8.8757635      0.019152047  
     68000     1290305   0.11997906    -2.4348838     -2.2549153      0.0005770088  -0.95882149    -0.1742376      345.56853      348.96748      9.5930789     -0.37749403     1156850.3      141.10077      206.80528     -0.99883743     65.704512      19             8.8757635      0.020596243  
     69000     1290305   0.12000892    -2.4343068     -2.2542936      0.0013272149  -0.97630723    -0.17921485     345.53431      349.05563      9.5930789     -0.38473162     1157027.9      141.10077      206.80528     -0.96502604     65.704512      19             8.8757635      0.019899045  
     70000     1290305   0.12010447    -2.4343413     -2.2541848     -0.0012043352  -1.0045557     -0.18611046     345.50954      349.14378      9.5930789     -0.39729015     1157237.1      141.10077      206.80528     -1.0224753      65.704512      19             8.8757635      0.021083661  
Loop time of 149.74 on 6 procs for 10000 steps with 1290305 atoms

Performance: 28850.033 tau/day, 66.782 timesteps/s
99.1% CPU use with 6 MPI tasks x no OpenMP threads

MPI task timing breakdown:
Section |  min time  |  avg time  |  max time  |%varavg| %total
---------------------------------------------------------------
Pair    | 15.507     | 15.821     | 16.356     |   7.0 | 10.57
Neigh   | 0.22272    | 0.24927    | 0.26893    |   3.2 |  0.17
Comm    | 12.84      | 15.948     | 17.663     |  37.5 | 10.65
Output  | 0.083984   | 0.084765   | 0.085037   |   0.1 |  0.06
Modify  | 111.28     | 112.45     | 116.32     |  16.5 | 75.10
Other   |            | 5.19       |            |       |  3.47

Nlocal:         215051 ave      216075 max      213042 min
Histogram: 2 0 0 0 0 0 0 0 0 4
Nghost:        84272.5 ave       85126 max       82603 min
Histogram: 2 0 0 0 0 0 0 0 0 4
Neighs:              0 ave           0 max           0 min
Histogram: 6 0 0 0 0 0 0 0 0 0

Total # of neighbors = -6
Ave neighs/atom = -4.6500634e-06
Neighbor list builds = 500
Dangerous builds = 500
unfix		6

#After tension, run more at zero strain rate in a holding state

run 10000
  generated 0 of 1 mixed pair_coeff terms from geometric mixing rule
Per MPI rank memory allocation (min/avg/max) = 154.7 | 155.2 | 155.5 Mbytes
   Step        Atoms         Temp          PotEng         TotEng          Pxx            Pyy            Pzz             Lx             Ly             Lz           Press          Volume        v_xcmin        v_xcmax      v_avgpressy   v_cracklength   v_targetsif       v_sif           c_p      
     70000     1290305   0.12010447    -2.4343411     -2.2541845     -0.0012229249  -1.0046143     -0.18613068     345.50954      349.14378      9.5930789     -0.39732263     1157237.1      141.10077      206.80528     -1.0225264      65.704512      19             8.8757635      0.021084714  
[...]
   1500000     1290305   0.11988145    -2.4104189     -2.2305969      0.0057568623  -1.3807811     -0.41804098     342.05424      359.10911      9.5930789     -0.59768841     1178363.9      131.18685      230.38258     -1.4510636      99.195729      19             19.113871      0.029921243  
Loop time of 3.44583e-06 on 6 procs for 0 steps with 1290305 atoms

227.3% CPU use with 6 MPI tasks x no OpenMP threads

MPI task timing breakdown:
Section |  min time  |  avg time  |  max time  |%varavg| %total
---------------------------------------------------------------
Pair    | 0          | 0          | 0          |   0.0 |  0.00
Neigh   | 0          | 0          | 0          |   0.0 |  0.00
Comm    | 0          | 0          | 0          |   0.0 |  0.00
Output  | 0          | 0          | 0          |   0.0 |  0.00
Modify  | 0          | 0          | 0          |   0.0 |  0.00
Other   |            | 3.446e-06  |            |       |100.00

Nlocal:         215051 ave      216496 max      212143 min
Histogram: 2 0 0 0 0 0 0 0 0 4
Nghost:          84006 ave       85239 max       81714 min
Histogram: 2 0 0 0 0 0 0 0 0 4
Neighs:              0 ave           0 max           0 min
Histogram: 6 0 0 0 0 0 0 0 0 0

Total # of neighbors = -6
Ave neighs/atom = -4.6500634e-06
Neighbor list builds = 0
Dangerous builds = 0

variable ti equal step
variable myly equal ly
variable	realR equal ${R}*(${targetsif}-${sif})*0.1
variable	realR equal 5e-05*(${targetsif}-${sif})*0.1
variable	realR equal 5e-05*(19-${sif})*0.1
variable	realR equal 5e-05*(19-19.1138709235857)*0.1
print "123456 ${ti} ${cracklength} ${sif} ${realR} ${myly}" append cracklength.dat screen no


run      0
  generated 0 of 1 mixed pair_coeff terms from geometric mixing rule
Per MPI rank memory allocation (min/avg/max) = 154.7 | 155.3 | 155.6 Mbytes
   Step        Atoms         Temp          PotEng         TotEng          Pxx            Pyy            Pzz             Lx             Ly             Lz           Press          Volume        v_xcmin        v_xcmax      v_avgpressy   v_cracklength   v_targetsif       v_sif           c_p      
   1500000     1290305   0.11988145    -2.4104189     -2.2305969      0.0057568623  -1.3807811     -0.41804098     342.05424      359.10911      9.5930789     -0.59768841     1178363.9      131.18685      230.38258     -1.4510636      99.195729      19             19.113871      0.029921243  
Loop time of 3.553e-06 on 6 procs for 0 steps with 1290305 atoms

220.5% CPU use with 6 MPI tasks x no OpenMP threads

MPI task timing breakdown:
Section |  min time  |  avg time  |  max time  |%varavg| %total
---------------------------------------------------------------
Pair    | 0          | 0          | 0          |   0.0 |  0.00
Neigh   | 0          | 0          | 0          |   0.0 |  0.00
Comm    | 0          | 0          | 0          |   0.0 |  0.00
Output  | 0          | 0          | 0          |   0.0 |  0.00
Modify  | 0          | 0          | 0          |   0.0 |  0.00
Other   |            | 3.553e-06  |            |       |100.00

Nlocal:         215051 ave      216496 max      212143 min
Histogram: 2 0 0 0 0 0 0 0 0 4
Nghost:          84006 ave       85239 max       81714 min
Histogram: 2 0 0 0 0 0 0 0 0 4
Neighs:              0 ave           0 max           0 min
Histogram: 6 0 0 0 0 0 0 0 0 0

Total # of neighbors = -6
Ave neighs/atom = -4.6500634e-06
Neighbor list builds = 0
Dangerous builds = 0
group           g_3 type 3
0 atoms in group g_3

fix		6 all deform 1 y erate ${realR} units box remap x
fix		6 all deform 1 y erate -5.69354617928504e-07 units box remap x
run		10000
  generated 0 of 1 mixed pair_coeff terms from geometric mixing rule
Per MPI rank memory allocation (min/avg/max) = 154.7 | 155.3 | 155.6 Mbytes
   Step        Atoms         Temp          PotEng         TotEng          Pxx            Pyy            Pzz             Lx             Ly             Lz           Press          Volume        v_xcmin        v_xcmax      v_avgpressy   v_cracklength   v_targetsif       v_sif           c_p      
   1500000     1290305   0.11988145    -2.4104189     -2.2305969      0.0057568623  -1.3807811     -0.41804098     342.05424      359.10911      9.5930789     -0.59768841     1178363.9      131.18685      230.38258     -1.4510636      99.195729      19             19.113871      0.029921243  
   1501000     1290305   0.12000644    -2.4105793     -2.2305698     -0.0091839367  -1.3834096     -0.42163214     342.08694      359.10809      9.5930789     -0.6047419      1178473.2      131.18685      230.38258     -1.4569824      99.195729      19             19.113871      0.030043291  
   1502000     1290305   0.12008579    -2.4102826     -2.2301541     -4.9634019e-05 -1.3812654     -0.4210774      342.06481      359.10707      9.5930789     -0.60079749     1178393.6      131.18685      230.38258     -1.4636933      99.195729      19             19.113871      0.03018167   
   1503000     1290305   0.12006267    -2.4105434     -2.2304496     -0.0041863185  -1.374203      -0.41724803     342.06273      359.10604      9.5930789     -0.59854577     1178383.1      131.18685      230.38258     -1.4035153      99.195729      19             19.113871      0.028940787  
   1504000     1290305   0.12010036    -2.4103966     -2.2302462     -0.0032964898  -1.3703771     -0.41616106     342.07352      359.10502      9.5930789     -0.59661154     1178416.9      131.18685      230.38258     -1.3769225      99.195729      19             19.113871      0.028392439  
   1505000     1290305   0.12011305    -2.410316      -2.2301466     -0.0045441369  -1.3749858     -0.42193435     342.08817      359.104        9.5930789     -0.60048808     1178464        131.18685      230.38258     -1.3874787      99.195729      19             19.113871      0.028610109  
   1506000     1290305   0.1199896     -2.4103638     -2.2303795     -0.0026251922  -1.374886      -0.42261129     342.06462      359.10298      9.5930789     -0.60004084     1178379.5      131.18685      230.38258     -1.3893992      99.195729      19             19.113871      0.02864971   
   1507000     1290305   0.11993128    -2.4106005     -2.2307037     -0.0017590183  -1.3694071     -0.42019333     342.08187      359.10195      9.5930789     -0.59711981     1178435.6      131.18685      230.38258     -1.3967852      99.195729      19             19.113871      0.028802012  
   1508000     1290305   0.12004883    -2.4104826     -2.2304095     -0.0016165168  -1.377998      -0.42366014     342.06482      359.10093      9.5930789     -0.60109154     1178373.5      131.18685      230.38258     -1.43481        99.195729      19             19.113871      0.02958609   
   1509000     1290305   0.12002671    -2.4104097     -2.2303698     -0.005951068   -1.3756132     -0.42223176     342.06851      359.09991      9.5930789     -0.60126533     1178382.8      131.18685      230.38258     -1.3663671      99.195729      19             19.113871      0.028174783  
   1510000     1290305   0.1200015     -2.4104454     -2.2304433      0.0017248105  -1.3701474     -0.42145876     342.05845      359.09889      9.5930789     -0.59662713     1178344.8      131.18685      230.38258     -1.4405949      99.195729      19             19.113871      0.029705377  
Loop time of 149.558 on 6 procs for 10000 steps with 1290305 atoms

Performance: 28885.037 tau/day, 66.864 timesteps/s
99.1% CPU use with 6 MPI tasks x no OpenMP threads

MPI task timing breakdown:
Section |  min time  |  avg time  |  max time  |%varavg| %total
---------------------------------------------------------------
Pair    | 15.486     | 15.686     | 16.062     |   5.0 | 10.49
Neigh   | 0.21813    | 0.24741    | 0.26739    |   3.4 |  0.17
Comm    | 12.828     | 16.406     | 18.137     |  41.6 | 10.97
Output  | 0.082721   | 0.083548   | 0.083912   |   0.1 |  0.06
Modify  | 110.93     | 112.1      | 116.17     |  17.3 | 74.96
Other   |            | 5.031      |            |       |  3.36

Nlocal:         215051 ave      216506 max      212178 min
Histogram: 2 0 0 0 0 0 0 0 0 4
Nghost:        84015.5 ave       85214 max       81727 min
Histogram: 2 0 0 0 0 0 0 0 0 4
Neighs:              0 ave           0 max           0 min
Histogram: 6 0 0 0 0 0 0 0 0 0

Total # of neighbors = -6
Ave neighs/atom = -4.6500634e-06
Neighbor list builds = 500
Dangerous builds = 500
unfix		6

#After tension, run more at zero strain rate in a holding state

run 10000
  generated 0 of 1 mixed pair_coeff terms from geometric mixing rule
Per MPI rank memory allocation (min/avg/max) = 154.7 | 155.3 | 155.6 Mbytes
   Step        Atoms         Temp          PotEng         TotEng          Pxx            Pyy            Pzz             Lx             Ly             Lz           Press          Volume        v_xcmin        v_xcmax      v_avgpressy   v_cracklength   v_targetsif       v_sif           c_p      
   1510000     1290305   0.1200015     -2.4104454     -2.2304433      0.0017245483  -1.3701485     -0.42145884     342.05845      359.09889      9.5930789     -0.5966276      1178344.8      131.18685      230.38258     -1.4405948      99.195729      19             19.113871      0.029705375  
   1511000     1290305   0.12002061    -2.4102017     -2.2301709     -0.0019343239  -1.3766771     -0.41953913     342.07216      359.09889      9.5930789     -0.59938351     1178392.1      131.18685      230.38258     -1.4524906      99.195729      19             19.113871      0.029950669  
   1512000     1290305   0.12013291    -2.4105167     -2.2303175      0.0017594514  -1.3716156     -0.42144955     342.06535      359.09889      9.5930789     -0.5971019      1178368.6      131.18685      230.38258     -1.4611258      99.195729      19             19.113871      0.030128729  
   1513000     1290305   0.11986073    -2.41026       -2.2304691      0.0027833457  -1.3672266     -0.41941564     342.05879      359.09889      9.5930789     -0.59461964     1178346        131.18685      230.38258     -1.410563       99.195729      19             19.113871      0.029086113  
   1514000     1290305   0.1199622     -2.410613      -2.2306698      0.0054669178  -1.3680095     -0.41408738     342.06293      359.09889      9.5930789     -0.59220999     1178360.3      131.18685      230.38258     -1.4191272      99.195729      19             19.113871      0.029262708  
   1515000     1290305   0.1198561     -2.410191      -2.230407      -0.0029812668  -1.3720134     -0.41960914     342.09022      359.09889      9.5930789     -0.59820126     1178454.3      131.18685      230.38258     -1.3928146      99.195729      19             19.113871      0.028720137  
   1516000     1290305   0.12006522    -2.4106047     -2.2305071     -0.0015022994  -1.3659664     -0.41717882     342.07603      359.09889      9.5930789     -0.59488251     1178405.4      131.18685      230.38258     -1.3707829      99.195729      19             19.113871      0.028265839  
   1517000     1290305   0.12008046    -2.410601      -2.2304804     -0.00026677348 -1.3655324     -0.41729415     342.07906      359.09889      9.5930789     -0.59436443     1178415.8      131.18685      230.38258     -1.4283377      99.195729      19             19.113871      0.02945263   
   1518000     1290305   0.12002319    -2.4103631     -2.2303285      0.0010249578  -1.3667381     -0.4162912      342.0661       359.09889      9.5930789     -0.59400146     1178371.2      131.18685      230.38258     -1.3727548      99.195729      19             19.113871      0.028306499  
   1519000     1290305   0.12000493    -2.4105792     -2.2305719     -0.00074854625 -1.3708351     -0.41971997     342.07584      359.09889      9.5930789     -0.5971012      1178404.7      131.18685      230.38258     -1.3915517      99.195729      19             19.113871      0.028694095  
   1520000     1290305   0.11995775    -2.4106526     -2.2307161     -0.0021556932  -1.3668223     -0.42081782     342.0673       359.09889      9.5930789     -0.59659859     1178375.3      131.18685      230.38258     -1.3907425      99.195729      19             19.113871      0.028677409  
Loop time of 126.609 on 6 procs for 10000 steps with 1290305 atoms

Performance: 34120.787 tau/day, 78.983 timesteps/s
99.0% CPU use with 6 MPI tasks x no OpenMP threads

MPI task timing breakdown:
Section |  min time  |  avg time  |  max time  |%varavg| %total
---------------------------------------------------------------
Pair    | 15.595     | 15.806     | 16.105     |   4.7 | 12.48
Neigh   | 0.23277    | 0.25524    | 0.27458    |   2.7 |  0.20
Comm    | 12.838     | 16.516     | 18.344     |  42.7 | 13.04
Output  | 0.08422    | 0.084299   | 0.084499   |   0.0 |  0.07
Modify  | 87.849     | 88.938     | 93.03      |  19.5 | 70.25
Other   |            | 5.01       |            |       |  3.96

Nlocal:         215051 ave      216514 max      212114 min
Histogram: 2 0 0 0 0 0 0 0 0 4
Nghost:        83998.8 ave       85203 max       81703 min
Histogram: 2 0 0 0 0 0 0 0 0 4
Neighs:              0 ave           0 max           0 min
Histogram: 6 0 0 0 0 0 0 0 0 0

Total # of neighbors = -6
Ave neighs/atom = -4.6500634e-06
Neighbor list builds = 500
Dangerous builds = 500
variable cracktipold equal v_cracktipl

next        j

jump        in.notch delete
variable   j loop 10000


###########Obtain the crack length here##################
run     0
  generated 0 of 1 mixed pair_coeff terms from geometric mixing rule
Per MPI rank memory allocation (min/avg/max) = 154.7 | 155.3 | 155.6 Mbytes
   Step        Atoms         Temp          PotEng         TotEng          Pxx            Pyy            Pzz             Lx             Ly             Lz           Press          Volume        v_xcmin        v_xcmax      v_avgpressy   v_cracklength   v_targetsif       v_sif           c_p      
   1520000     1290305   0.11995775    -2.4106526     -2.2307161     -0.0021556932  -1.3668223     -0.42081782     342.0673       359.09889      9.5930789     -0.59659859     1178375.3      131.18685      230.38258     -1.3907425      99.195729      19             19.113871      0.028677409  
Loop time of 3.39583e-06 on 6 procs for 0 steps with 1290305 atoms

186.5% CPU use with 6 MPI tasks x no OpenMP threads

MPI task timing breakdown:
Section |  min time  |  avg time  |  max time  |%varavg| %total
---------------------------------------------------------------
Pair    | 0          | 0          | 0          |   0.0 |  0.00
Neigh   | 0          | 0          | 0          |   0.0 |  0.00
Comm    | 0          | 0          | 0          |   0.0 |  0.00
Output  | 0          | 0          | 0          |   0.0 |  0.00
Modify  | 0          | 0          | 0          |   0.0 |  0.00
Other   |            | 3.396e-06  |            |       |100.00

Nlocal:         215051 ave      216514 max      212114 min
Histogram: 2 0 0 0 0 0 0 0 0 4
Nghost:        83998.8 ave       85203 max       81703 min
Histogram: 2 0 0 0 0 0 0 0 0 4
Neighs:              0 ave           0 max           0 min
Histogram: 6 0 0 0 0 0 0 0 0 0

Total # of neighbors = -6
Ave neighs/atom = -4.6500634e-06
Neighbor list builds = 0
Dangerous builds = 0

log	none
variable       sif equal -${avgpressy}*(sqrt(${cracklength}/2))*(sqrt(3.1416))*sqrt(1/cos((3.1416*(${cracklength}/2))/${lxr}))
variable       sif equal --1.39074247795934*(sqrt(${cracklength}/2))*(sqrt(3.1416))*sqrt(1/cos((3.1416*(${cracklength}/2))/${lxr}))
variable       sif equal --1.39074247795934*(sqrt(100.909852652826/2))*(sqrt(3.1416))*sqrt(1/cos((3.1416*(${cracklength}/2))/${lxr}))
variable       sif equal --1.39074247795934*(sqrt(100.909852652826/2))*(sqrt(3.1416))*sqrt(1/cos((3.1416*(100.909852652826/2))/${lxr}))
variable       sif equal --1.39074247795934*(sqrt(100.909852652826/2))*(sqrt(3.1416))*sqrt(1/cos((3.1416*(100.909852652826/2))/342.067297128224))

thermo          1000
run             0
  generated 0 of 1 mixed pair_coeff terms from geometric mixing rule
Per MPI rank memory allocation (min/avg/max) = 154.7 | 155.3 | 155.6 Mbytes
   Step        Atoms         Temp          PotEng         TotEng          Pxx            Pyy            Pzz             Lx             Ly             Lz           Press          Volume        v_xcmin        v_xcmax      v_avgpressy   v_cracklength   v_targetsif       v_sif           c_p      
   1520000     1290305   0.11995775    -2.4106526     -2.2307161     -0.0021556932  -1.3668223     -0.42081782     342.0673       359.09889      9.5930789     -0.59659859     1178375.3      131.18525      232.0951      -1.3907425      100.90985      19             18.512841      0.028677409  
Loop time of 3.65833e-06 on 6 procs for 0 steps with 1290305 atoms

205.0% CPU use with 6 MPI tasks x no OpenMP threads

MPI task timing breakdown:
Section |  min time  |  avg time  |  max time  |%varavg| %total
---------------------------------------------------------------
Pair    | 0          | 0          | 0          |   0.0 |  0.00
Neigh   | 0          | 0          | 0          |   0.0 |  0.00
Comm    | 0          | 0          | 0          |   0.0 |  0.00
Output  | 0          | 0          | 0          |   0.0 |  0.00
Modify  | 0          | 0          | 0          |   0.0 |  0.00
Other   |            | 3.658e-06  |            |       |100.00

Nlocal:         215051 ave      216514 max      212114 min
Histogram: 2 0 0 0 0 0 0 0 0 4
Nghost:        83998.8 ave       85203 max       81703 min
Histogram: 2 0 0 0 0 0 0 0 0 4
Neighs:              0 ave           0 max           0 min
Histogram: 6 0 0 0 0 0 0 0 0 0

Total # of neighbors = -6
Ave neighs/atom = -4.6500634e-06
Neighbor list builds = 0
Dangerous builds = 0

variable ti equal step
variable myly equal ly
variable	realR equal ${R}*(${targetsif}-${sif})*0.1
variable	realR equal 5e-05*(${targetsif}-${sif})*0.1
variable	realR equal 5e-05*(19-${sif})*0.1
variable	realR equal 5e-05*(19-18.5128405537743)*0.1
print "123456 ${ti} ${cracklength} ${sif} ${realR} ${myly}" append cracklength.dat screen no


run      0
  generated 0 of 1 mixed pair_coeff terms from geometric mixing rule
Per MPI rank memory allocation (min/avg/max) = 154.7 | 155.3 | 155.6 Mbytes
   Step        Atoms         Temp          PotEng         TotEng          Pxx            Pyy            Pzz             Lx             Ly             Lz           Press          Volume        v_xcmin        v_xcmax      v_avgpressy   v_cracklength   v_targetsif       v_sif           c_p      
   1520000     1290305   0.11995775    -2.4106526     -2.2307161     -0.0021556932  -1.3668223     -0.42081782     342.0673       359.09889      9.5930789     -0.59659859     1178375.3      131.18525      232.0951      -1.3907425      100.90985      19             18.512841      0.028677409  
Loop time of 4.05533e-06 on 6 procs for 0 steps with 1290305 atoms

201.4% CPU use with 6 MPI tasks x no OpenMP threads

MPI task timing breakdown:
Section |  min time  |  avg time  |  max time  |%varavg| %total
---------------------------------------------------------------
Pair    | 0          | 0          | 0          |   0.0 |  0.00
Neigh   | 0          | 0          | 0          |   0.0 |  0.00
Comm    | 0          | 0          | 0          |   0.0 |  0.00
Output  | 0          | 0          | 0          |   0.0 |  0.00
Modify  | 0          | 0          | 0          |   0.0 |  0.00
Other   |            | 4.055e-06  |            |       |100.00

Nlocal:         215051 ave      216514 max      212114 min
Histogram: 2 0 0 0 0 0 0 0 0 4
Nghost:        83998.8 ave       85203 max       81703 min
Histogram: 2 0 0 0 0 0 0 0 0 4
Neighs:              0 ave           0 max           0 min
Histogram: 6 0 0 0 0 0 0 0 0 0

Total # of neighbors = -6
Ave neighs/atom = -4.6500634e-06
Neighbor list builds = 0
Dangerous builds = 0
