LAMMPS (24 Mar 2022)
package gpu 0
package gpu 6
# 3d Lennard-Jones melt

units		lj
atom_style	atomic

read_data	tobemelted.initial.readdata
Reading data file ...
  orthogonal box = (-0.19761599 -0.15873531 -0.17851477) to (9.413447 9.3745663 9.3943458)
  3 by 1 by 2 MPI processor grid
  reading atoms ...
  1000 atoms
  reading velocities ...
  1000 velocities
  read_data CPU = 0.012 seconds

replicate	6 6 1
Replicating atoms ...
  orthogonal box = (-0.19761599 -0.15873531 -0.17851477) to (57.468762 57.041074 9.3943458)
  3 by 2 by 1 MPI processor grid
  36000 atoms
  replicate CPU = 0.003 seconds

mass		1 2.0
mass		2 1.0

velocity	all create 1.2 87287

variable	a equal 1.5
variable	b equal 0.35
variable	t equal 1.2
variable	w equal 0.016
variable	p equal 2.0
variable	l equal 30.602501*2/3.0
variable	z equal $l*3
variable	z equal 20.4016673333333*3

#log		log.lammps

variable        bump equal 1.1
#Bump, relative_start relative_end, relative_energy, 4.9s
pair_style      lj/cut/bump 1.4
pair_coeff      1 1 1.0 1.0 1.2 1.0 ${bump} 1.4
pair_coeff      1 1 1.0 1.0 1.2 1.0 1.1 1.4
pair_coeff      1 2 1.0 0.9166666666667 1.2 1.0 ${bump} 1.2833333333
pair_coeff      1 2 1.0 0.9166666666667 1.2 1.0 1.1 1.2833333333
pair_coeff      2 2 1.0 0.8333333333333 1.2 1.0 ${bump} 1.1666666667
pair_coeff      2 2 1.0 0.8333333333333 1.2 1.0 1.1 1.1666666667

pair_modify	shift yes tail no

neighbor	0.5 bin
neigh_modify	every 10 delay 0 check no

timestep	0.005

thermo		100
thermo_style    custom step temp pe etotal temp vol press pxx pyy pzz pxz lx ly lz enthalpy

dump            3 all xyz 10000 latadump.xyz
dump            4 all custom 100000 lata4olivia id type x y z vx vy vz fx fy fz

fix		1 all nvt temp $t $w 1.0
fix		1 all nvt temp 1.2 $w 1.0
fix		1 all nvt temp 1.2 0.016 1.0
run		1000000

CITE-CITE-CITE-CITE-CITE-CITE-CITE-CITE-CITE-CITE-CITE-CITE-CITE

Your simulation uses code contributions which should be cited:

- GPU package (short-range, long-range and three-body potentials):

@Article{Brown11,
 author = {W. M. Brown, P. Wang, S. J. Plimpton, A. N. Tharrington},
 title = {Implementing Molecular Dynamics on Hybrid High Performance Computers - Short Range Forces},
 journal = {Comp.~Phys.~Comm.},
 year =    2011,
 volume =  182,
 pages =   {898--911}
}

@Article{Brown12,
 author = {W. M. Brown, A. Kohlmeyer, S. J. Plimpton, A. N. Tharrington},
 title = {Implementing Molecular Dynamics on Hybrid High Performance Computers - Particle-Particle Particle-Mesh},
 journal = {Comp.~Phys.~Comm.},
 year =    2012,
 volume =  183,
 pages =   {449--459}
}

@Article{Brown13,
 author = {W. M. Brown, Y. Masako},
 title = {Implementing Molecular Dynamics on Hybrid High Performance Computers – Three-Body Potentials},
 journal = {Comp.~Phys.~Comm.},
 year =    2013,
 volume =  184,
 pages =   {2785--2793}
}

@Article{Trung15,
 author = {T. D. Nguyen, S. J. Plimpton},
 title = {Accelerating dissipative particle dynamics simulations for soft matter systems},
 journal = {Comput.~Mater.~Sci.},
 year =    2015,
 volume =  100,
 pages =   {173--180}
}

@Article{Trung17,
 author = {T. D. Nguyen},
 title = {GPU-accelerated Tersoff potentials for massively parallel Molecular Dynamics simulations},
 journal = {Comp.~Phys.~Comm.},
 year =    2017,
 volume =  212,
 pages =   {113--122}
}

@Article{Nikolskiy19,
 author = {V. Nikolskiy, V. Stegailov},
 title = {GPU acceleration of four-site water models in LAMMPS},
 journal = {Proceeding of the International Conference on Parallel Computing (ParCo 2019), Prague, Czech Republic},
 year =    2019
}

CITE-CITE-CITE-CITE-CITE-CITE-CITE-CITE-CITE-CITE-CITE-CITE-CITE

  generated 0 of 1 mixed pair_coeff terms from geometric mixing rule
Per MPI rank memory allocation (min/avg/max) = 5.888 | 5.888 | 5.888 Mbytes
   Step          Temp          PotEng         TotEng          Temp          Volume         Press           Pxx            Pyy            Pzz            Pxz             Lx             Ly             Lz          Enthalpy   
         0   1.2           -2.5836418     -0.78369176     1.2            31576.136      1.3773964      1.3747043      1.3682076      1.3892773     -0.028690432    57.666378      57.19981       9.5728605      0.42444315   
       100   0.61663491    -1.6706261     -0.74569942     0.61663491     31576.136      2.4851063      2.4602331      2.43902        2.5560657     -0.037132633    57.666378      57.19981       9.5728605      1.4340243    
       200   0.62756273    -1.6294866     -0.68816864     0.62756273     31576.136      2.9462648      2.9423021      2.8739946      3.0224976      0.034127497    57.666378      57.19981       9.5728605      1.8960441    
       300   0.64089152    -1.5831138     -0.62180327     0.64089152     31576.136      3.3362252      3.4156569      3.2273501      3.3656685      0.053617154    57.666378      57.19981       9.5728605      2.3044495    
       400   0.65271173    -1.5281931     -0.54915275     0.65271173     31576.136      3.693596       3.7329051      3.6871503      3.6607326      0.055872602    57.666378      57.19981       9.5728605      2.6905554    
       500   0.67081641    -1.4775455     -0.47134886     0.67081641     31576.136      3.9992492      3.964666       4.0279462      4.0051353     -0.019274561    57.666378      57.19981       9.5728605      3.0364522    
       600   0.69516118    -1.4316148     -0.38890202     0.69516118     31576.136      4.318431       4.3704356      4.2907626      4.2940948     -0.022140614    57.666378      57.19981       9.5728605      3.3988582    
       700   0.72125862    -1.3839414     -0.30208348     0.72125862     31576.136      4.5549518      4.6353736      4.5637312      4.4657506      0.028654474    57.666378      57.19981       9.5728605      3.6931326    
       800   0.74101223    -1.3232037     -0.21171625     0.74101223     31576.136      5.0258617      5.0482223      5.1048509      4.9245119     -0.0008963674   57.666378      57.19981       9.5728605      4.1965419    
       900   0.76340311    -1.263042      -0.11796917     0.76340311     31576.136      5.3985342      5.4073045      5.4073788      5.3809193     -0.023695283    57.666378      57.19981       9.5728605      4.6171656    
      1000   0.79001785    -1.2062801     -0.021286243    0.79001785     31576.136      5.7145417      5.70859        5.7225593      5.7124757      0.037904968    57.666378      57.19981       9.5728605      4.9910234    
      1100   0.82185263    -1.1544536      0.078291123    0.82185263     31576.136      6.0154285      6.0359946      5.9447599      6.0655311      0.075680839    57.666378      57.19981       9.5728605      5.3545131    
      1200   0.8466911     -1.0897497      0.1802517      0.8466911      31576.136      6.5061622      6.4551026      6.5481073      6.5152766      0.063790215    57.666378      57.19981       9.5728605      5.8869035    
      1300   0.88202297    -1.0388851      0.28411261     0.88202297     31576.136      6.8759209      6.8676039      6.9090669      6.851092       0.059468405    57.666378      57.19981       9.5728605      6.3150853    
      1400   0.90701102    -0.97102289     0.38945584     0.90701102     31576.136      7.1926034      7.1442157      7.2427405      7.1908538     -0.010239344    57.666378      57.19981       9.5728605      6.6981954    
      1500   0.94203155    -0.91750783     0.49550024     0.94203155     31576.136      7.6422044      7.5684604      7.7048134      7.6533396      0.064632194    57.666378      57.19981       9.5728605      7.1985916    
      1600   0.97527725    -0.86118802     0.60168722     0.97527725     31576.136      7.9625265      7.9434684      8.0121107      7.9320004      0.0011502128   57.666378      57.19981       9.5728605      7.5857379    
      1700   1.0084098     -0.80554223     0.70703039     1.0084098      31576.136      8.2641655      8.2524108      8.2376954      8.3023902     -0.059368567    57.666378      57.19981       9.5728605      7.9556531    
      1800   1.0374418     -0.7453382      0.81078133     1.0374418      31576.136      8.6618806      8.7224296      8.630982       8.6322304     -0.0085595543   57.666378      57.19981       9.5728605      8.4082459    
      1900   1.0714188     -0.69493014     0.91215343     1.0714188      31576.136      8.9611572      8.9835619      8.9369916      8.9629181      0.060885624    57.666378      57.19981       9.5728605      8.7721179    
      2000   1.1038617     -0.64671479     1.0090318      1.1038617      31576.136      9.3365404      9.2440931      9.3845891      9.3809389     -0.011897257    57.666378      57.19981       9.5728605      9.1982505    
      2100   1.1268455     -0.58978148     1.1004398      1.1268455      31576.136      9.6549957      9.6399027      9.6704195      9.6546648      0.15704456     57.666378      57.19981       9.5728605      9.5689804    
      2200   1.1527602     -0.5445457      1.1845465      1.1527602      31576.136      9.8917259      9.9401282      9.9058868      9.8291625      0.039885246    57.666378      57.19981       9.5728605      9.8607267    
      2300   1.1832892     -0.51607237     1.2588122      1.1832892      31576.136      10.170332      10.153658      10.136166      10.221173      0.069602245    57.666378      57.19981       9.5728605      10.179362    
      2400   1.2037708     -0.48576269     1.3198434      1.2037708      31576.136      10.316687      10.236403      10.348869      10.36479      -0.022894031    57.666378      57.19981       9.5728605      10.368764    
      2500   1.2215208     -0.46643948     1.3657908      1.2215208      31576.136      10.459721      10.43507       10.459914      10.484178     -0.024390694    57.666378      57.19981       9.5728605      10.540168    
      2600   1.2272216     -0.44791299     1.3928683      1.2272216      31576.136      10.640106      10.716057      10.633205      10.571055      0.080990139    57.666378      57.19981       9.5728605      10.725464    
      2700   1.2283356     -0.44554567     1.3969066      1.2283356      31576.136      10.611904      10.59096       10.561428      10.683323      0.034447429    57.666378      57.19981       9.5728605      10.704765    
      2800   1.2132543     -0.4413875      1.3784434      1.2132543      31576.136      10.579181      10.395399      10.758984      10.583159     -0.0904167      57.666378      57.19981       9.5728605      10.6576      
      2900   1.204189      -0.46101602     1.3452173      1.204189       31576.136      10.429467      10.404507      10.413299      10.470593     -0.0091540885   57.666378      57.19981       9.5728605      10.493058    
      3000   1.1977359     -0.48855085     1.3080031      1.1977359      31576.136      10.324225      10.348894      10.297044      10.326739     -0.083126014    57.666378      57.19981       9.5728605      10.363535    
      3100   1.1828445     -0.49934516     1.2748723      1.1828445      31576.136      10.196012      10.170664      10.150895      10.266479      0.069110499    57.666378      57.19981       9.5728605      10.217947    
      3200   1.1768712     -0.51155961     1.2536982      1.1768712      31576.136      10.212857      10.224216      10.240929      10.173425     -0.13290886     57.666378      57.19981       9.5728605      10.211547    
      3300   1.1735518     -0.51367098     1.2466078      1.1735518      31576.136      10.16497       10.11915       10.213385      10.162376     -0.03057514     57.666378      57.19981       9.5728605      10.162455    
      3400   1.1777828     -0.51124068     1.2553844      1.1777828      31576.136      10.144842      10.206819      10.145408      10.082299     -0.048567686    57.666378      57.19981       9.5728605      10.153577    
      3500   1.1862505     -0.50100046     1.2783258      1.1862505      31576.136      10.218028      10.241136      10.215865      10.197082      0.015841867    57.666378      57.19981       9.5728605      10.24071     
      3600   1.198558      -0.49054326     1.3072439      1.198558       31576.136      10.338969      10.386664      10.391286      10.238956      0.030461938    57.666378      57.19981       9.5728605      10.375707    
      3700   1.2062411     -0.47390483     1.3354066      1.2062411      31576.136      10.380677      10.409122      10.351505      10.381404      0.060570075    57.666378      57.19981       9.5728605      10.440453    
      3800   1.2182644     -0.47302407     1.3543218      1.2182644      31576.136      10.422612      10.344224      10.409221      10.514391     -0.13199451     57.666378      57.19981       9.5728605      10.49615     
      3900   1.216909      -0.46483089     1.3604818      1.216909       31576.136      10.425756      10.406832      10.491906      10.37853       0.014241326    57.666378      57.19981       9.5728605      10.505068    
      4000   1.2092415     -0.46103969     1.3527722      1.2092415      31576.136      10.512117      10.400849      10.626934      10.508567     -0.015832912    57.666378      57.19981       9.5728605      10.573106    
      4100   1.2028897     -0.47011779     1.3341666      1.2028897      31576.136      10.415973      10.349584      10.466383      10.431952     -0.066115989    57.666378      57.19981       9.5728605      10.470172    
      4200   1.1948661     -0.48147444     1.310775       1.1948661      31576.136      10.336953      10.167141      10.42342       10.420299      0.07422415     57.666378      57.19981       9.5728605      10.377471    
      4300   1.1874059     -0.49322931     1.28783        1.1874059      31576.136      10.283044      10.240388      10.315005      10.293738     -0.067778702    57.666378      57.19981       9.5728605      10.307241    
      4400   1.1845884     -0.50647971     1.2703536      1.1845884      31576.136      10.26485       10.283298      10.288454      10.2228       -0.025881553    57.666378      57.19981       9.5728605      10.273807    
      4500   1.1889856     -0.51996406     1.2634648      1.1889856      31576.136      10.132613      10.172871      10.204807      10.020162      0.053655464    57.666378      57.19981       9.5728605      10.150931    
      4600   1.1818606     -0.50539587     1.2673458      1.1818606      31576.136      10.274553      10.183146      10.30219       10.338322      0.0035838192   57.666378      57.19981       9.5728605      10.279309    
      4700   1.1856577     -0.49767253     1.2807646      1.1856577      31576.136      10.289367      10.252896      10.353566      10.26164      -0.016870311    57.666378      57.19981       9.5728605      10.305722    
      4800   1.1979817     -0.49780853     1.2991141      1.1979817      31576.136      10.338615      10.30231       10.371584      10.341951     -0.035712914    57.666378      57.19981       9.5728605      10.367267    
      4900   1.1983602     -0.48066929     1.3168211      1.1983602      31576.136      10.443308      10.522168      10.370433      10.437323      0.077960723    57.666378      57.19981       9.5728605      10.476802    
      5000   1.2044917     -0.47539621     1.3312911      1.2044917      31576.136      10.35005       10.477695      10.233119      10.339337      0.014197069    57.666378      57.19981       9.5728605      10.409474    
      5100   1.2068014     -0.47198536     1.3381664      1.2068014      31576.136      10.395122      10.472972      10.435832      10.276561      0.061722836    57.666378      57.19981       9.5728605      10.455882    
      5200   1.2040225     -0.46887146     1.3371122      1.2040225      31576.136      10.578723      10.687952      10.551724      10.496492      0.025350474    57.666378      57.19981       9.5728605      10.615868    
      5300   1.2006078     -0.47198659     1.328875       1.2006078      31576.136      10.497248      10.633153      10.430572      10.42802       0.062142704    57.666378      57.19981       9.5728605      10.536168    
      5400   1.2007194     -0.48603615     1.3149929      1.2007194      31576.136      10.370046      10.402368      10.458368      10.249402      0.032384717    57.666378      57.19981       9.5728605      10.410715    
      5500   1.18966       -0.48763346     1.2968069      1.18966        31576.136      10.32383       10.347107      10.274634      10.34975      -0.027970078    57.666378      57.19981       9.5728605      10.351993    
      5600   1.1878359     -0.50219886     1.2795055      1.1878359      31576.136      10.26985       10.24119       10.274788      10.293572      0.042128428    57.666378      57.19981       9.5728605      10.287344    
      5700   1.1831462     -0.50706541     1.2676047      1.1831462      31576.136      10.205619      10.216004      10.224161      10.176692      0.03780251     57.666378      57.19981       9.5728605      10.219105    
      5800   1.1807184     -0.50742058     1.2636078      1.1807184      31576.136      10.186527      10.174389      10.161267      10.223926     -0.031426286    57.666378      57.19981       9.5728605      10.198363    
      5900   1.1841382     -0.50756074     1.2685972      1.1841382      31576.136      10.169114      10.241743      10.100276      10.165324      0.023551775    57.666378      57.19981       9.5728605      10.188079    
      6000   1.1841052     -0.49485176     1.2812567      1.1841052      31576.136      10.180731      10.320334      10.200109      10.02175       0.034568647    57.666378      57.19981       9.5728605      10.210928    
      6100   1.1950144     -0.49558207     1.2968898      1.1950144      31576.136      10.19959       10.183023      10.301676      10.114071     -0.10955271     57.666378      57.19981       9.5728605      10.243102    
      6200   1.1990148     -0.48676624     1.311706       1.1990148      31576.136      10.216796      10.181877      10.206581      10.26193      -0.047833459    57.666378      57.19981       9.5728605      10.27301     
      6300   1.1982431     -0.47484641     1.3224683      1.1982431      31576.136      10.33802       10.334687      10.332353      10.34702       0.078466002    57.666378      57.19981       9.5728605      10.3901      
      6400   1.2018858     -0.47492823     1.3278504      1.2018858      31576.136      10.329134      10.337278      10.356335      10.29379      -0.034568317    57.666378      57.19981       9.5728605      10.387688    
      6500   1.2001206     -0.47506986     1.325061       1.2001206      31576.136      10.414758      10.487269      10.38699       10.370014     -0.029812687    57.666378      57.19981       9.5728605      10.46        
      6600   1.1941291     -0.47577194     1.315372       1.1941291      31576.136      10.374569      10.287664      10.383564      10.452479      0.017711538    57.666378      57.19981       9.5728605      10.415061    
      6700   1.1949705     -0.48985919     1.3025467      1.1949705      31576.136      10.332239      10.374559      10.387238      10.234919      0.059602448    57.666378      57.19981       9.5728605      10.365107    
      6800   1.185859      -0.48862498     1.2901142      1.185859       31576.136      10.323231      10.311357      10.38387       10.274466     -0.041799141    57.666378      57.19981       9.5728605      10.344774    
      6900   1.1889343     -0.50219229     1.2811596      1.1889343      31576.136      10.243361      10.285938      10.223443      10.220701     -0.014172536    57.666378      57.19981       9.5728605      10.265764    
      7000   1.1837719     -0.49815632     1.2774522      1.1837719      31576.136      10.183832      10.156907      10.262319      10.132272     -0.035274434    57.666378      57.19981       9.5728605      10.209843    
      7100   1.1841451     -0.49715833     1.27901        1.1841451      31576.136      10.279118      10.230794      10.365961      10.2406        0.029984788    57.666378      57.19981       9.5728605      10.294978    
      7200   1.1921161     -0.50212222     1.2860023      1.1921161      31576.136      10.283566      10.358404      10.253362      10.238932     -0.019943616    57.666378      57.19981       9.5728605      10.305871    
      7300   1.1922413     -0.49330024     1.2950121      1.1922413      31576.136      10.236498      10.256292      10.269033      10.184171     -0.047869008    57.666378      57.19981       9.5728605      10.273597    
      7400   1.1978355     -0.49300204     1.3037013      1.1978355      31576.136      10.282115      10.317898      10.230661      10.297787      0.13989592     57.666378      57.19981       9.5728605      10.322298    
      7500   1.1979585     -0.48770955     1.3091783      1.1979585      31576.136      10.334633      10.347297      10.245701      10.4109       -0.0020353887   57.666378      57.19981       9.5728605      10.373839    
      7600   1.1995557     -0.48817657     1.311107       1.1995557      31576.136      10.292887      10.313644      10.375922      10.189094      0.083559418    57.666378      57.19981       9.5728605      10.339151    
      7700   1.1991685     -0.49081869     1.3078841      1.1991685      31576.136      10.288215      10.242053      10.404961      10.217631     -0.034518278    57.666378      57.19981       9.5728605      10.331831    
      7800   1.1911758     -0.48675135     1.2999627      1.1911758      31576.136      10.292816      10.361436      10.305933      10.211079     -0.0094306072   57.666378      57.19981       9.5728605      10.327945    
      7900   1.190827      -0.49519644     1.2909944      1.190827       31576.136      10.336985      10.443346      10.31063       10.256979     -0.0059278278   57.666378      57.19981       9.5728605      10.357718    
      8000   1.1879943     -0.49858923     1.2833527      1.1879943      31576.136      10.303231      10.396611      10.224079      10.289003      0.086105233    57.666378      57.19981       9.5728605      10.32047     
      8100   1.1849683     -0.49969117     1.2777119      1.1849683      31576.136      10.236111      10.280997      10.218657      10.20868      -0.021345012    57.666378      57.19981       9.5728605      10.255957    
      8200   1.1800901     -0.49464739     1.2754386      1.1800901      31576.136      10.257449      10.245322      10.287358      10.239667     -0.0051604219   57.666378      57.19981       9.5728605      10.2724      
      8300   1.1865379     -0.50175857     1.2779988      1.1865379      31576.136      10.268389      10.331532      10.247748      10.225888      0.042397978    57.666378      57.19981       9.5728605      10.284556    
      8400   1.1841006     -0.49200299     1.2840986      1.1841006      31576.136      10.272471      10.26468       10.322597      10.230136     -0.042893985    57.666378      57.19981       9.5728605      10.294236    
      8500   1.1957376     -0.50098309     1.2925735      1.1957376      31576.136      10.229353      10.288942      10.200167      10.19895       0.058507657    57.666378      57.19981       9.5728605      10.264891    
      8600   1.1990292     -0.49889643     1.2995974      1.1990292      31576.136      10.259675      10.377542      10.203821      10.19766       0.055571413    57.666378      57.19981       9.5728605      10.298511    
      8700   1.1947348     -0.48878223     1.3032702      1.1947348      31576.136      10.273398      10.294773      10.303383      10.222038      0.061429082    57.666378      57.19981       9.5728605      10.314221    
      8800   1.2010416     -0.49787154     1.3036408      1.2010416      31576.136      10.233557      10.20825       10.104955      10.387466     -0.0093270698   57.666378      57.19981       9.5728605      10.279646    
      8900   1.1958581     -0.49417497     1.2995623      1.1958581      31576.136      10.24763       10.164796      10.332737      10.245358      0.07401818     57.666378      57.19981       9.5728605      10.287912    
      9000   1.1927713     -0.49762061     1.2914867      1.1927713      31576.136      10.302069      10.326808      10.286706      10.292692      0.025502082    57.666378      57.19981       9.5728605      10.327585    
      9100   1.1855153     -0.49481596     1.2834076      1.1855153      31576.136      10.35695       10.388973      10.268843      10.413033     -0.043636906    57.666378      57.19981       9.5728605      10.367643    
      9200   1.1897874     -0.50631106     1.2783205      1.1897874      31576.136      10.235112      10.228278      10.25465       10.222407     -0.025034933    57.666378      57.19981       9.5728605      10.25569     
      9300   1.1856385     -0.502046       1.2763624      1.1856385      31576.136      10.184026      10.180455      10.130387      10.241235     -0.026381332    57.666378      57.19981       9.5728605      10.208923    
      9400   1.1865467     -0.50263001     1.2771406      1.1865467      31576.136      10.19003       10.225723      10.249543      10.094822     -0.067573489    57.666378      57.19981       9.5728605      10.214967    
      9500   1.1880017     -0.50202908     1.2799239      1.1880017      31576.136      10.195576      10.16371       10.265983      10.157035     -0.065503453    57.666378      57.19981       9.5728605      10.222616    
      9600   1.1855275     -0.49452651     1.2837154      1.1855275      31576.136      10.313202      10.331436      10.326796      10.281374      0.016851677    57.666378      57.19981       9.5728605      10.329579    
      9700   1.1883221     -0.49398312     1.2884505      1.1883221      31576.136      10.318141      10.322216      10.322215      10.309991     -0.043932345    57.666378      57.19981       9.5728605      10.338645    
      9800   1.1903642     -0.4907679      1.2947287      1.1903642      31576.136      10.208368      10.214224      10.207049      10.20383      -0.077412565    57.666378      57.19981       9.5728605      10.24864     
      9900   1.1954147     -0.49334239     1.2997298      1.1954147      31576.136      10.235584      10.199296      10.330035      10.17742      -0.059579257    57.666378      57.19981       9.5728605      10.277513    
     10000   1.196496      -0.4928177      1.3018764      1.196496       31576.136      10.284619      10.373959      10.339363      10.140535      0.046478232    57.666378      57.19981       9.5728605      10.322669    
     10100   1.1919081     -0.48767272     1.3001398      1.1919081      31576.136      10.314326      10.314145      10.319136      10.309696      0.057966448    57.666378      57.19981       9.5728605      10.346989    
     10200   1.1889244     -0.48966334     1.2936737      1.1889244      31576.136      10.267401      10.25672       10.197927      10.347557     -0.0041694217   57.666378      57.19981       9.5728605      10.299364    
     10300   1.1812608     -0.48690734     1.2849347      1.1812608      31576.136      10.256603      10.241269      10.31805       10.21049      -0.012956349    57.666378      57.19981       9.5728605      10.281154    
     10400   1.1858604     -0.50246179     1.2762794      1.1858604      31576.136      10.252981      10.190058      10.285395      10.283491     -0.0074760907   57.666378      57.19981       9.5728605      10.269322    
     10500   1.1803197     -0.50124459     1.2691858      1.1803197      31576.136      10.242193      10.176612      10.256897      10.293071     -0.049752093    57.666378      57.19981       9.5728605      10.252766    
     10600   1.1818903     -0.50606534     1.2667208      1.1818903      31576.136      10.199787      10.226364      10.067477      10.30552      -0.037027437    57.666378      57.19981       9.5728605      10.213106    
     10700   1.1864171     -0.51147553     1.2681007      1.1864171      31576.136      10.140467      10.073929      10.149722      10.19775      -0.046105129    57.666378      57.19981       9.5728605      10.162455    
     10800   1.1790078     -0.49632159     1.2721409      1.1790078      31576.136      10.302814      10.287721      10.362255      10.258465     -0.045862683    57.666378      57.19981       9.5728605      10.308892    
     10900   1.1858869     -0.50003827     1.2787426      1.1858869      31576.136      10.250125      10.242992      10.211261      10.296121     -0.0052963501   57.666378      57.19981       9.5728605      10.26928     
     11000   1.1892816     -0.49768556     1.2861872      1.1892816      31576.136      10.214829      10.236208      10.19385       10.21443      -0.021810788    57.666378      57.19981       9.5728605      10.245766    
     11100   1.1924853     -0.49711605     1.2915622      1.1924853      31576.136      10.196613      10.200807      10.191752      10.19728       0.057907521    57.666378      57.19981       9.5728605      10.235164    
     11200   1.1932451     -0.49703751     1.2927804      1.1932451      31576.136      10.303202      10.318772      10.241127      10.349706      0.086242349    57.666378      57.19981       9.5728605      10.329872    
     11300   1.1868346     -0.49114395     1.2890584      1.1868346      31576.136      10.307034      10.383745      10.220678      10.316678      0.022493518    57.666378      57.19981       9.5728605      10.329511    
     11400   1.1837243     -0.49340103     1.2821361      1.1837243      31576.136      10.329614      10.285997      10.376352      10.326494     -0.028605492    57.666378      57.19981       9.5728605      10.342395    
     11500   1.1788822     -0.49239533     1.2758788      1.1788822      31576.136      10.338143      10.363114      10.341974      10.309341      0.02381531     57.666378      57.19981       9.5728605      10.343618    
     11600   1.1764093     -0.49190881     1.2726561      1.1764093      31576.136      10.263672      10.22908       10.332317      10.22962      -0.027401579    57.666378      57.19981       9.5728605      10.275076    
     11700   1.1835232     -0.50214954     1.273086       1.1835232      31576.136      10.252404      10.247024      10.212502      10.297685      0.011145734    57.666378      57.19981       9.5728605      10.265622    
     11800   1.1874072     -0.50416848     1.2768928      1.1874072      31576.136      10.173521      10.216982      10.205543      10.098039     -0.092992444    57.666378      57.19981       9.5728605      10.20024     
     11900   1.1879564     -0.50076699     1.2811182      1.1879564      31576.136      10.225202      10.159693      10.25009       10.265822      0.03548234     57.666378      57.19981       9.5728605      10.249795    
     12000   1.1881255     -0.49679974     1.2853391      1.1881255      31576.136      10.186076      10.189264      10.217089      10.151875      0.0090863808   57.666378      57.19981       9.5728605      10.219698    
     12100   1.1864529     -0.4924406      1.2871893      1.1864529      31576.136      10.246755      10.300115      10.194661      10.245491      0.044780999    57.666378      57.19981       9.5728605      10.274771    
     12200   1.1873957     -0.49400354     1.2870405      1.1873957      31576.136      10.266476      10.300925      10.271117      10.227386      0.0058062601   57.666378      57.19981       9.5728605      10.29192     
     12300   1.1840437     -0.49108547     1.2849308      1.1840437      31576.136      10.283165      10.219425      10.294095      10.335974      0.0087715497   57.666378      57.19981       9.5728605      10.304448    
     12400   1.1826986     -0.49348883     1.2805097      1.1826986      31576.136      10.308897      10.343221      10.361256      10.222215      0.050405071    57.666378      57.19981       9.5728605      10.322597    
     12500   1.1881782     -0.50694322     1.2752746      1.1881782      31576.136      10.210841      10.192053      10.232407      10.208063      0.019140515    57.666378      57.19981       9.5728605      10.231355    
     12600   1.1870728     -0.51011568     1.270444       1.1870728      31576.136      10.175333      10.266819      10.17573       10.08345      -0.032191738    57.666378      57.19981       9.5728605      10.19538     
     12700   1.1840798     -0.50758064     1.2684898      1.1840798      31576.136      10.24052       10.206527      10.291029      10.224005      0.0029991479   57.666378      57.19981       9.5728605      10.250603    
     12800   1.1778326     -0.49725382     1.269446       1.1778326      31576.136      10.290643      10.321877      10.306064      10.243989      0.039394073    57.666378      57.19981       9.5728605      10.295523    
     12900   1.188135      -0.509776       1.2723769      1.188135       31576.136      10.196014      10.252149      10.169672      10.166222      0.026793323    57.666378      57.19981       9.5728605      10.215453    
     13000   1.1865722     -0.5043489      1.2754599      1.1865722      31576.136      10.154443      10.127179      10.2765        10.059651      0.086893345    57.666378      57.19981       9.5728605      10.182074    
     13100   1.1841321     -0.49875969     1.277389       1.1841321      31576.136      10.181546      10.225251      10.296317      10.023071      0.041846429    57.666378      57.19981       9.5728605      10.207775    
     13200   1.1848549     -0.49895091     1.278282       1.1848549      31576.136      10.279082      10.365723      10.189413      10.28211      -0.018037008    57.666378      57.19981       9.5728605      10.294218    
     13300   1.1853051     -0.49879621     1.279112       1.1853051      31576.136      10.335955      10.383547      10.334926      10.289394     -0.031748415    57.666378      57.19981       9.5728605      10.344932    
     13400   1.1867881     -0.50063166     1.279501       1.1867881      31576.136      10.261628      10.308446      10.226113      10.250324     -0.035900051    57.666378      57.19981       9.5728605      10.280127    
     13500   1.181987      -0.49365782     1.2792735      1.181987       31576.136      10.286944      10.267973      10.336235      10.256625      0.096565689    57.666378      57.19981       9.5728605      10.302105    
     13600   1.184789      -0.50084845     1.2762857      1.184789       31576.136      10.305523      10.310657      10.352328      10.253583      0.043098371    57.666378      57.19981       9.5728605      10.315413    
     13700   1.1868405     -0.50842686     1.2717844      1.1868405      31576.136      10.217222      10.327733      10.1269        10.197034     -0.051642986    57.666378      57.19981       9.5728605      10.233462    
     13800   1.1866099     -0.51109141     1.268774       1.1866099      31576.136      10.259584      10.266339      10.256504      10.255909     -0.058541904    57.666378      57.19981       9.5728605      10.267608    
     13900   1.1871996     -0.5131055      1.2676444      1.1871996      31576.136      10.075813      10.071798      10.131243      10.024398      0.017164892    57.666378      57.19981       9.5728605      10.10529     
     14000   1.1843432     -0.50903317     1.2674323      1.1843432      31576.136      10.183864      10.227818      10.144736      10.179039      0.020836132    57.666378      57.19981       9.5728605      10.199852    
     14100   1.1821874     -0.50429516     1.2689367      1.1821874      31576.136      10.183372      10.182883      10.228264      10.138968     -0.057691651    57.666378      57.19981       9.5728605      10.200924    
     14200   1.1830335     -0.50324672     1.2712543      1.1830335      31576.136      10.258482      10.229748      10.166551      10.379147      0.047524808    57.666378      57.19981       9.5728605      10.269122    
     14300   1.1871487     -0.50639299     1.2742806      1.1871487      31576.136      10.190157      10.129553      10.210078      10.23084      -0.014454267    57.666378      57.19981       9.5728605      10.212219    
     14400   1.1877527     -0.50640808     1.2751715      1.1877527      31576.136      10.164273      10.110246      10.177353      10.205218     -0.022014667    57.666378      57.19981       9.5728605      10.190406    
     14500   1.1797978     -0.49526745     1.2743801      1.1797978      31576.136      10.26814       10.339031      10.228041      10.237347      0.0059809843   57.666378      57.19981       9.5728605      10.280719    
     14600   1.1838014     -0.50346898     1.2721838      1.1838014      31576.136      10.222965      10.284602      10.178654      10.205638      0.077460347    57.666378      57.19981       9.5728605      10.238898    
     14700   1.1778001     -0.49644434     1.2702068      1.1778001      31576.136      10.17404       10.218752      10.172956      10.130413      0.064273531    57.666378      57.19981       9.5728605      10.194009    
     14800   1.180194      -0.50029219     1.2699496      1.180194       31576.136      10.229708      10.222151      10.264754      10.202218      0.036448549    57.666378      57.19981       9.5728605      10.242579    
     14900   1.1817385     -0.50241608     1.2701425      1.1817385      31576.136      10.234863      10.232884      10.255194      10.216511      0.030102416    57.666378      57.19981       9.5728605      10.247293    
     15000   1.1791484     -0.49739153     1.2712819      1.1791484      31576.136      10.263219      10.254756      10.226996      10.307906      0.063330247    57.666378      57.19981       9.5728605      10.273304    
     15100   1.1761805     -0.49076591     1.2734558      1.1761805      31576.136      10.319036      10.20548       10.368967      10.382662      0.03024441     57.666378      57.19981       9.5728605      10.324436    
     15200   1.184931      -0.50237752     1.2749695      1.184931       31576.136      10.251859      10.159267      10.359939      10.236371      0.049599846    57.666378      57.19981       9.5728605      10.267028    
     15300   1.1830659     -0.50017359     1.2743759      1.1830659      31576.136      10.287214      10.274044      10.311392      10.276205     -0.0027087356   57.666378      57.19981       9.5728605      10.297444    
     15400   1.1880082     -0.50961077     1.272352       1.1880082      31576.136      10.224305      10.187182      10.207054      10.278679     -0.075887053    57.666378      57.19981       9.5728605      10.240242    
     15500   1.1835367     -0.50627593     1.2689798      1.1835367      31576.136      10.193411      10.177339      10.323115      10.079779     -0.029954733    57.666378      57.19981       9.5728605      10.209773    
     15600   1.1845022     -0.51253848     1.2641654      1.1845022      31576.136      10.160549      10.152114      10.170674      10.158861     -0.028870893    57.666378      57.19981       9.5728605      10.176135    
     15700   1.1758413     -0.50518288     1.25853        1.1758413      31576.136      10.231741      10.307427      10.142923      10.244871     -0.063874536    57.666378      57.19981       9.5728605      10.232942    
     15800   1.1750251     -0.50910846     1.2533803      1.1750251      31576.136      10.178189      10.186427      10.148956      10.199186      0.011450707    57.666378      57.19981       9.5728605      10.180822    
     15900   1.1825753     -0.5234211      1.2503925      1.1825753      31576.136      10.09893       10.131609      10.103668      10.061513     -0.058040794    57.666378      57.19981       9.5728605      10.108315    
     16000   1.1776263     -0.51639281     1.2499976      1.1776263      31576.136      10.141005      10.129508      10.227491      10.066015     -0.0097376205   57.666378      57.19981       9.5728605      10.144824    
     16100   1.1761082     -0.51167285     1.2524405      1.1761082      31576.136      10.15041       10.064642      10.1925        10.194089     -0.054391928    57.666378      57.19981       9.5728605      10.155517    
     16200   1.1762216     -0.50827824     1.2560051      1.1762216      31576.136      10.088405      10.138674      10.10085       10.025692      0.028605571    57.666378      57.19981       9.5728605      10.104696    
     16300   1.1796465     -0.50901236     1.2604083      1.1796465      31576.136      10.161938      10.234839      10.123854      10.127122     -0.0033693238   57.666378      57.19981       9.5728605      10.173596    
     16400   1.1779309     -0.50185552     1.2649918      1.1779309      31576.136      10.18634       10.262565      10.113431      10.183023     -0.062344312    57.666378      57.19981       9.5728605      10.199582    
     16500   1.1864161     -0.51038554     1.2691892      1.1864161      31576.136      10.100083      10.140072      10.036347      10.12383      -0.042971887    57.666378      57.19981       9.5728605      10.128123    
     16600   1.1822305     -0.50228134     1.2710152      1.1822305      31576.136      10.188517      10.126271      10.203644      10.235635     -0.030142117    57.666378      57.19981       9.5728605      10.207515    
     16700   1.1790342     -0.49885207     1.2696501      1.1790342      31576.136      10.194637      10.135051      10.205359      10.2435        0.0096300889   57.666378      57.19981       9.5728605      10.211518    
     16800   1.1884211     -0.5168561      1.2657261      1.1884211      31576.136      10.134797      10.164677      10.056737      10.182978     -0.050811976    57.666378      57.19981       9.5728605      10.155108    
     16900   1.1765864     -0.50446463     1.2603659      1.1765864      31576.136      10.204775      10.201787      10.204274      10.208264      0.038121586    57.666378      57.19981       9.5728605      10.211126    
     17000   1.1807325     -0.51464529     1.2564043      1.1807325      31576.136      10.144814      10.128624      10.094139      10.211679      0.006024806    57.666378      57.19981       9.5728605      10.154572    
     17100   1.1820101     -0.52075525     1.2522106      1.1820101      31576.136      10.034083      10.016562      9.9920747      10.093612      0.032154022    57.666378      57.19981       9.5728605      10.053254    
     17200   1.1728643     -0.51049674     1.2487509      1.1728643      31576.136      10.259012      10.212507      10.32941       10.23512       0.078257086    57.666378      57.19981       9.5728605      10.247084    
     17300   1.1733306     -0.51212187     1.2478252      1.1733306      31576.136      10.10972       10.181195      10.024207      10.123757      0.035627373    57.666378      57.19981       9.5728605      10.115211    
     17400   1.1752716     -0.51344018     1.2494182      1.1752716      31576.136      10.139144      10.12838       10.215971      10.07308      -0.016364691    57.666378      57.19981       9.5728605      10.142612    
     17500   1.1786393     -0.51379199     1.2541178      1.1786393      31576.136      10.101011      10.188018      10.015888      10.099127      0.10732349     57.666378      57.19981       9.5728605      10.113865    
     17600   1.1784112     -0.50706782     1.2604999      1.1784112      31576.136      10.170196      10.166884      10.177435      10.166268     -0.059038308    57.666378      57.19981       9.5728605      10.18093     
     17700   1.1783058     -0.50020093     1.2672088      1.1783058      31576.136      10.214926      10.30493       10.165843      10.174005     -0.076228015    57.666378      57.19981       9.5728605      10.226872    
     17800   1.1801807     -0.49798822     1.2722337      1.1801807      31576.136      10.268337      10.249424      10.270743      10.284843     -0.018844908    57.666378      57.19981       9.5728605      10.278745    
     17900   1.1815692     -0.49974676     1.2725578      1.1815692      31576.136      10.156428      10.162484      10.045977      10.260823     -0.039103464    57.666378      57.19981       9.5728605      10.180912    
     18000   1.1828216     -0.50511969     1.2690635      1.1828216      31576.136      10.176173      10.221224      10.087683      10.219612     -0.0047274637   57.666378      57.19981       9.5728605      10.194736    
     18100   1.1865803     -0.51714829     1.2626727      1.1865803      31576.136      10.110734      10.156608      10.100873      10.074723     -0.031745715    57.666378      57.19981       9.5728605      10.130949    
     18200   1.170995      -0.50193737     1.2545064      1.170995       31576.136      10.193455      10.190693      10.202296      10.187377     -0.0001225235   57.666378      57.19981       9.5728605      10.195338    
     18300   1.1763694     -0.5163247      1.2481804      1.1763694      31576.136      10.127027      10.177727      10.178435      10.02492       0.028707822    57.666378      57.19981       9.5728605      10.130747    
     18400   1.1716954     -0.51349147     1.2440029      1.1716954      31576.136      10.140018      10.161482      10.095567      10.163003     -0.012864305    57.666378      57.19981       9.5728605      10.137963    
     18500   1.1718786     -0.51476371     1.2430054      1.1718786      31576.136      10.166146      10.24206       10.057175      10.199202      0.0097606235   57.666378      57.19981       9.5728605      10.159883    
     18600   1.1801468     -0.5238367      1.2463344      1.1801468      31576.136      10.065358      10.113804      10.057713      10.024557      0.033477375    57.666378      57.19981       9.5728605      10.07481     
     18700   1.1741553     -0.50964679     1.2515372      1.1741553      31576.136      10.174336      10.31676       10.154355      10.051894      0.026891003    57.666378      57.19981       9.5728605      10.175599    
     18800   1.1803844     -0.51271984     1.2578076      1.1803844      31576.136      10.147735      10.177614      10.045163      10.220427      0.0046051422   57.666378      57.19981       9.5728605      10.158537    
     18900   1.1826769     -0.51211403     1.261852       1.1826769      31576.136      10.248916      10.185987      10.177258      10.383502     -0.044338517    57.666378      57.19981       9.5728605      10.251329    
     19000   1.1826286     -0.50988688     1.2640068      1.1826286      31576.136      10.138062      10.162067      10.108404      10.143715     -0.026179938    57.666378      57.19981       9.5728605      10.156252    
     19100   1.1822184     -0.50822106     1.2650573      1.1822184      31576.136      10.257442      10.195736      10.307329      10.269261      0.065608591    57.666378      57.19981       9.5728605      10.262012    
     19200   1.1799797     -0.50565583     1.2642646      1.1799797      31576.136      10.192912      10.162724      10.114317      10.301693      0.0086533833   57.666378      57.19981       9.5728605      10.204619    
     19300   1.1813816     -0.51062302     1.2614001      1.1813816      31576.136      10.136408      10.103859      10.059656      10.245707     -0.0074020769   57.666378      57.19981       9.5728605      10.152194    
     19400   1.172104      -0.5013912      1.2567159      1.172104       31576.136      10.25128       10.319466      10.26941       10.164966      0.037900527    57.666378      57.19981       9.5728605      10.248267    
     19500   1.1777838     -0.51424505     1.2523816      1.1777838      31576.136      10.119351      10.092697      10.096072      10.169285     -0.0032024673   57.666378      57.19981       9.5728605      10.128215    
     19600   1.1755591     -0.51514911     1.2481405      1.1755591      31576.136      10.157665      10.118073      10.201522      10.153399     -0.06905648     57.666378      57.19981       9.5728605      10.15758     
     19700   1.1764234     -0.51963845     1.2449477      1.1764234      31576.136      10.133601      10.017803      10.193095      10.189905     -0.10342586     57.666378      57.19981       9.5728605      10.13328     
     19800   1.1670272     -0.50726559     1.2432266      1.1670272      31576.136      10.235342      10.265476      10.296796      10.143755     -0.011844697    57.666378      57.19981       9.5728605      10.220798    
     19900   1.1672015     -0.50618714     1.2445665      1.1672015      31576.136      10.240926      10.236381      10.195342      10.291057      0.030323172    57.666378      57.19981       9.5728605      10.227036    
     20000   1.174417      -0.51346379     1.2481128      1.174417       31576.136      10.122364      10.19927       10.146347      10.021474     -0.10316769     57.666378      57.19981       9.5728605      10.126589    
     20100   1.1751158     -0.50953749     1.2530872      1.1751158      31576.136      10.196485      10.175688      10.220284      10.193484      0.013166248    57.666378      57.19981       9.5728605      10.196576    
     20200   1.1772461     -0.50807492     1.2577452      1.1772461      31576.136      10.190103      10.079768      10.342299      10.148242     -0.050818295    57.666378      57.19981       9.5728605      10.195636    
     20300   1.1789865     -0.50622117     1.2622095      1.1789865      31576.136      10.179031      10.145766      10.086078      10.305251      0.0021434118   57.666378      57.19981       9.5728605      10.19039     
     20400   1.1812281     -0.50600956     1.2657834      1.1812281      31576.136      10.204579      10.166091      10.192081      10.255565      0.094834683    57.666378      57.19981       9.5728605      10.216372    
     20500   1.1801917     -0.5027557      1.2674827      1.1801917      31576.136      10.216326      10.152951      10.276861      10.219168     -0.010599976    57.666378      57.19981       9.5728605      10.228375    
     20600   1.1828686     -0.50832883     1.2659248      1.1828686      31576.136      10.103894      10.059689      10.125791      10.1262       -0.030861766    57.666378      57.19981       9.5728605      10.1282      
     20700   1.1806311     -0.51078483     1.2601127      1.1806311      31576.136      10.175258      10.123182      10.229433      10.173161      0.068512127    57.666378      57.19981       9.5728605      10.184983    
     20800   1.1705197     -0.50340206     1.2523287      1.1705197      31576.136      10.221112      10.276142      10.14214       10.245056      0.11788339     57.666378      57.19981       9.5728605      10.217419    
     20900   1.1776518     -0.52217341     1.2442552      1.1776518      31576.136      10.113708      10.135506      10.103994      10.101624      0.17583271     57.666378      57.19981       9.5728605      10.115139    
     21000   1.1665137     -0.51296429     1.2367577      1.1665137      31576.136      10.199479      10.191078      10.108886      10.298473     -0.039896694    57.666378      57.19981       9.5728605      10.182873    
     21100   1.1724804     -0.52647467     1.232197       1.1724804      31576.136      10.120657      10.137779      10.086338      10.137853      0.050164095    57.666378      57.19981       9.5728605      10.109176    
     21200   1.1726363     -0.52714427     1.2317614      1.1726363      31576.136      10.097255      10.139256      10.111282      10.041228      0.024956294    57.666378      57.19981       9.5728605      10.088214    
     21300   1.1714911     -0.52140969     1.2357782      1.1714911      31576.136      10.003244      9.9630557      10.147889      9.8987861      0.054860073    57.666378      57.19981       9.5728605      10.009772    
     21400   1.1755754     -0.52079724     1.2425168      1.1755754      31576.136      10.026483      10.00461       10.019961      10.054879     -0.0078455443   57.666378      57.19981       9.5728605      10.036895    
     21500   1.1799306     -0.52052521     1.2493216      1.1799306      31576.136      10.075162      10.053823      10.091056      10.080608      0.083109744    57.666378      57.19981       9.5728605      10.086397    
     21600   1.1763198     -0.51045993     1.2539708      1.1763198      31576.136      10.093227      10.06439       10.094953      10.120338     -0.033975555    57.666378      57.19981       9.5728605      10.10689     
     21700   1.1805731     -0.51537848     1.255432       1.1805731      31576.136      10.139199      10.155353      10.14891       10.113334      0.018106589    57.666378      57.19981       9.5728605      10.148674    
     21800   1.1730692     -0.50724037     1.2523146      1.1730692      31576.136      10.148064      10.243133      10.048481      10.152579      0.01150649     57.666378      57.19981       9.5728605      10.153333    
     21900   1.172402      -0.5109556      1.2475986      1.172402       31576.136      10.210534      10.235089      10.273747      10.122766     -0.028627064    57.666378      57.19981       9.5728605      10.20341     
     22000   1.1718241     -0.51478717     1.2429001      1.1718241      31576.136      10.177951      10.217847      10.196448      10.119558      0.022798577    57.666378      57.19981       9.5728605      10.170132    
     22100   1.1717121     -0.51720675     1.2403125      1.1717121      31576.136      10.119034      10.114607      10.198632      10.043862     -0.027063595    57.666378      57.19981       9.5728605      10.115868    
     22200   1.1686455     -0.51278644     1.2401332      1.1686455      31576.136      10.237775      10.257605      10.309476      10.146244      0.027808887    57.666378      57.19981       9.5728605      10.219838    
     22300   1.1722244     -0.51600624     1.2422816      1.1722244      31576.136      10.126243      10.075429      10.124108      10.179191     -0.016704657    57.666378      57.19981       9.5728605      10.12416     
     22400   1.1735527     -0.51583741     1.2444427      1.1735527      31576.136      10.040786      10.021438      10.003095      10.097825     -0.045249639    57.666378      57.19981       9.5728605      10.051366    
     22500   1.1742486     -0.51517448     1.2461495      1.1742486      31576.136      10.172068      10.162471      10.233194      10.120538     -0.0055740533   57.666378      57.19981       9.5728605      10.168222    
     22600   1.1763455     -0.51687392     1.2475954      1.1763455      31576.136      10.058471      10.045956      10.142246      9.9872108      0.046262868    57.666378      57.19981       9.5728605      10.07003     
     22700   1.1720211     -0.51124734     1.2467355      1.1720211      31576.136      10.071897      10.086144      10.054994      10.074552     -0.022136662    57.666378      57.19981       9.5728605      10.080946    
     22800   1.1749378     -0.5173734      1.2449844      1.1749378      31576.136      10.131559      10.164426      10.092058      10.138193      0.0045741099   57.666378      57.19981       9.5728605      10.131526    
     22900   1.1752762     -0.51972766     1.2431377      1.1752762      31576.136      10.057582      9.9646731      10.129633      10.078438      0.008282206    57.666378      57.19981       9.5728605      10.064792    
     23000   1.1759375     -0.52346247     1.2403948      1.1759375      31576.136      10.062131      10.152194      10.029781      10.004419      0.038427281    57.666378      57.19981       9.5728605      10.06604     
     23100   1.1663921     -0.51170636     1.2378332      1.1663921      31576.136      10.200495      10.219647      10.249616      10.132222     -0.065535421    57.666378      57.19981       9.5728605      10.184839    
     23200   1.1762203     -0.52812266     1.2361587      1.1762203      31576.136      10.010898      9.9252794      10.134992      9.9724226      0.022379925    57.666378      57.19981       9.5728605      10.016866    
     23300   1.1697541     -0.5192667      1.2353157      1.1697541      31576.136      10.162984      10.126461      10.20844       10.154052      0.0083711632   57.666378      57.19981       9.5728605      10.149421    
     23400   1.173399      -0.52455991     1.2354896      1.173399       31576.136      10.156697      10.236388      10.114941      10.118763     -0.055122766    57.666378      57.19981       9.5728605      10.14408     
     23500   1.1711505     -0.51927173     1.2374052      1.1711505      31576.136      10.082005      10.041832      10.160087      10.044097      0.025486714    57.666378      57.19981       9.5728605      10.080482    
     23600   1.1686948     -0.51348003     1.2395135      1.1686948      31576.136      10.178973      10.138511      10.193797      10.20461      -0.106449       57.666378      57.19981       9.5728605      10.167642    
     23700   1.1739236     -0.51817241     1.2426641      1.1739236      31576.136      10.074899      10.056772      10.060759      10.107165     -0.010674125    57.666378      57.19981       9.5728605      10.079508    
     23800   1.174191      -0.51595637     1.2452812      1.174191       31576.136      10.121477      10.1734        10.056975      10.134056      0.068599238    57.666378      57.19981       9.5728605      10.122979    
     23900   1.1712475     -0.51000059     1.2468219      1.1712475      31576.136      10.140171      10.178234      9.9988686      10.243409      0.029085607    57.666378      57.19981       9.5728605      10.140917    
     24000   1.1736924     -0.51396257     1.2465271      1.1736924      31576.136      10.105312      10.158257      10.05426       10.103419     -0.0089266925   57.666378      57.19981       9.5728605      10.110047    
     24100   1.1712773     -0.51289486     1.2439723      1.1712773      31576.136      10.135007      10.153799      10.099852      10.151369      0.032567202    57.666378      57.19981       9.5728605      10.133538    
     24200   1.1651896     -0.50717168     1.2405642      1.1651896      31576.136      10.110087      10.148733      10.137677      10.043852      0.022864628    57.666378      57.19981       9.5728605      10.108272    
     24300   1.169289      -0.51771326     1.2361715      1.169289       31576.136      10.121567      10.207942      10.038145      10.118615     -0.043432575    57.666378      57.19981       9.5728605      10.113949    
     24400   1.1712362     -0.52459762     1.2322079      1.1712362      31576.136      10.134143      10.073382      10.1595        10.169548      0.0023601469   57.666378      57.19981       9.5728605      10.121016    
     24500   1.1674525     -0.52075494     1.2303751      1.1674525      31576.136      10.155162      10.263465      10.113896      10.088125     -0.034156347    57.666378      57.19981       9.5728605      10.137619    
     24600   1.1652002     -0.51737774     1.2303741      1.1652002      31576.136      10.133651      10.218472      10.028457      10.154023     -0.0093801376   57.666378      57.19981       9.5728605      10.11875     
     24700   1.1723711     -0.52580554     1.2327023      1.1723711      31576.136      10.197651      10.148367      10.160518      10.284066     -0.080113784    57.666378      57.19981       9.5728605      10.177214    
     24800   1.1757446     -0.52639235     1.2371755      1.1757446      31576.136      10.063033      9.9804777      10.122682      10.08594       0.0047862794   57.666378      57.19981       9.5728605      10.063612    
     24900   1.1743612     -0.51962318     1.2418697      1.1743612      31576.136      10.0948        10.098726      10.1266        10.059073     -0.019169624    57.666378      57.19981       9.5728605      10.096169    
     25000   1.1809729     -0.52601437     1.2453958      1.1809729      31576.136      10.068748      10.024243      10.095964      10.086038      0.019544161    57.666378      57.19981       9.5728605      10.076845    
     25100   1.1762348     -0.51976375     1.2445395      1.1762348      31576.136      10.172103      10.318993      10.109702      10.087613      0.034979457    57.666378      57.19981       9.5728605      10.166642    
     25200   1.1715752     -0.5159328      1.2413813      1.1715752      31576.136      10.152345      10.154248      10.132165      10.170621     -0.0077569361   57.666378      57.19981       9.5728605      10.146154    
     25300   1.1732758     -0.52313316     1.2367317      1.1732758      31576.136      10.244934      10.228819      10.276681      10.229301      0.013082839    57.666378      57.19981       9.5728605      10.222716    
     25400   1.1738002     -0.52847701     1.2321743      1.1738002      31576.136      10.098231      10.014246      10.185396      10.09505      -0.088200509    57.666378      57.19981       9.5728605      10.089483    
     25500   1.1682425     -0.52433236     1.2279827      1.1682425      31576.136      10.018469      9.9739468      10.024103      10.057359      0.022883188    57.666378      57.19981       9.5728605      10.015332    
     25600   1.169613      -0.52902772     1.2253431      1.169613       31576.136      10.021815      10.069687      9.9998124      9.9959446     -0.069889822    57.666378      57.19981       9.5728605      10.015626    
     25700   1.1693211     -0.52922814     1.2247048      1.1693211      31576.136      10.101102      10.050367      10.155136      10.097805     -0.061955143    57.666378      57.19981       9.5728605      10.084532    
     25800   1.1681628     -0.52655423     1.2256412      1.1681628      31576.136      10.182451      10.096466      10.291322      10.159566      0.018492398    57.666378      57.19981       9.5728605      10.156821    
     25900   1.1697283     -0.52652825     1.2280155      1.1697283      31576.136      10.039747      10.042849      10.036391      10.040002     -0.029256818    57.666378      57.19981       9.5728605      10.034027    
     26000   1.1740346     -0.53113502     1.2298679      1.1740346      31576.136      10.045159      10.128181      9.9168784      10.090418     -0.038410794    57.666378      57.19981       9.5728605      10.040627    
     26100   1.1698841     -0.52318925     1.2315882      1.1698841      31576.136      10.12815       10.15316       10.158191      10.0731       -0.036616706    57.666378      57.19981       9.5728605      10.11514     
     26200   1.1734723     -0.52734782     1.2328118      1.1734723      31576.136      10.130235      10.161245      10.168327      10.061134     -0.011962142    57.666378      57.19981       9.5728605      10.118192    
     26300   1.1678938     -0.51844192     1.2333501      1.1678938      31576.136      10.095616      9.9488841      10.299246      10.038719      0.016679084    57.666378      57.19981       9.5728605      10.088366    
     26400   1.1705635     -0.52274478     1.2330516      1.1705635      31576.136      10.119087      10.150563      10.137382      10.069316      0.035389048    57.666378      57.19981       9.5728605      10.108653    
     26500   1.1639        -0.51273769     1.2330638      1.1639         31576.136      10.079647      10.004483      10.103096      10.131363     -0.021650714    57.666378      57.19981       9.5728605      10.074073    
     26600   1.1716246     -0.52355368     1.2338344      1.1716246      31576.136      10.074321      10.010819      10.143876      10.06827       0.023377476    57.666378      57.19981       9.5728605      10.070172    
     26700   1.1755217     -0.52904497     1.2341886      1.1755217      31576.136      10.096369      10.09855       10.111638      10.07892       0.02706399     57.666378      57.19981       9.5728605      10.089865    
     26800   1.1686742     -0.51978727     1.2331753      1.1686742      31576.136      10.145082      10.178371      10.201672      10.055204      0.03896779     57.666378      57.19981       9.5728605      10.131578    
     26900   1.1692731     -0.52296516     1.2308958      1.1692731      31576.136      10.093119      10.017886      10.087602      10.173871     -0.0073454651   57.666378      57.19981       9.5728605      10.083721    
     27000   1.1680076     -0.52333072     1.228632       1.1680076      31576.136      10.110523      10.074192      10.198799      10.058579     -0.064094873    57.666378      57.19981       9.5728605      10.096723    
     27100   1.1662984     -0.52352893     1.2258701      1.1662984      31576.136      10.146993      10.219616      10.064544      10.15682      -0.0057166242   57.666378      57.19981       9.5728605      10.125949    
     27200   1.1641649     -0.52438978     1.221809       1.1641649      31576.136      10.107479      10.06413       10.140112      10.118197      0.056019883    57.666378      57.19981       9.5728605      10.08723     
     27300   1.1708397     -0.53757603     1.2186347      1.1708397      31576.136      10.041634      10.048189      10.117601      9.9591124     -0.083417124    57.666378      57.19981       9.5728605      10.026302    
     27400   1.1647255     -0.52981993     1.2172198      1.1647255      31576.136      10.094883      10.105976      10.081711      10.096964     -0.015516789    57.666378      57.19981       9.5728605      10.071592    
     27500   1.1601472     -0.52124913     1.2189233      1.1601472      31576.136      10.124886      10.201036      10.040907      10.132715      0.06008446     57.666378      57.19981       9.5728605      10.099612    
     27600   1.1671302     -0.5269044      1.2237423      1.1671302      31576.136      10.085257      10.14253       10.021897      10.091342      0.074228396    57.666378      57.19981       9.5728605      10.069671    
     27700   1.1699053     -0.52544818     1.229361       1.1699053      31576.136      10.110468      10.13796       10.129649      10.063794     -0.052843266    57.666378      57.19981       9.5728605      10.097403    
     27800   1.1731652     -0.52601835     1.2336806      1.1731652      31576.136      10.071365      10.190716      10.006933      10.016448     -0.037570176    57.666378      57.19981       9.5728605      10.067425    
     27900   1.1707892     -0.52098132     1.2351537      1.1707892      31576.136      10.080037      10.139989      10.011063      10.089059      0.060938526    57.666378      57.19981       9.5728605      10.076504    
     28000   1.1696461     -0.51999851     1.2344218      1.1696461      31576.136      10.060309      10.050077      10.062617      10.068235     -0.033607064    57.666378      57.19981       9.5728605      10.058469    
     28100   1.1637333     -0.51524493     1.2303066      1.1637333      31576.136      10.171585      10.135852      10.165826      10.213077     -0.035238974    57.666378      57.19981       9.5728605      10.151956    
     28200   1.1653415     -0.52311357     1.2248502      1.1653415      31576.136      10.099951      10.050648      10.056647      10.192558      0.10250046     57.666378      57.19981       9.5728605      10.083667    
     28300   1.1637534     -0.52557689     1.2200047      1.1637534      31576.136      10.089811      9.9830443      10.106142      10.180247     -0.025981691    57.666378      57.19981       9.5728605      10.069928    
     28400   1.159628      -0.52207453     1.2173191      1.159628       31576.136      10.107271      10.25296       10.056791      10.012061      0.058422881    57.666378      57.19981       9.5728605      10.082557    
     28500   1.162643      -0.52699993     1.2169161      1.162643       31576.136      10.10362       10.131465      10.018043      10.161352     -0.038739205    57.666378      57.19981       9.5728605      10.078952    
     28600   1.1613709     -0.52385298     1.2181549      1.1613709      31576.136      10.121524      10.179582      10.106063      10.078929     -0.00027378721  57.666378      57.19981       9.5728605      10.095895    
     28700   1.173904      -0.54024301     1.2205641      1.173904       31576.136      10.02816       10.070786      10.010985      10.002709     -0.087333466    57.666378      57.19981       9.5728605      10.016413    
     28800   1.1637512     -0.52288447     1.2226938      1.1637512      31576.136      10.063652      10.147212      10.006131      10.037612     -0.050887683    57.666378      57.19981       9.5728605      10.049673    
     28900   1.1679207     -0.52678273     1.2250496      1.1679207      31576.136      10.094811      10.078889      10.177082      10.028461     -0.0089914694   57.666378      57.19981       9.5728605      10.079358    
     29000   1.1725852     -0.53343565     1.2253933      1.1725852      31576.136      10.045783      10.066205      10.091014      9.9801298     -0.029348445    57.666378      57.19981       9.5728605      10.036699    
     29100   1.1727617     -0.53701262     1.222081       1.1727617      31576.136      10.072026      9.9997916      10.125126      10.091161      0.037470663    57.666378      57.19981       9.5728605      10.056405    
     29200   1.1655079     -0.53079474     1.2174186      1.1655079      31576.136      10.11825       10.134586      10.116942      10.103221     -0.0042275606   57.666378      57.19981       9.5728605      10.092286    
     29300   1.1682748     -0.53874789     1.2136156      1.1682748      31576.136      10.021471      9.9694386      10.065834      10.029141     -0.055320244    57.666378      57.19981       9.5728605      10.003597    
     29400   1.160864      -0.52969334     1.2115543      1.160864       31576.136      10.174623      10.162569      10.189436      10.171864     -0.025703967    57.666378      57.19981       9.5728605      10.135868    
     29500   1.1592381     -0.52632492     1.2124839      1.1592381      31576.136      10.09764       10.087163      10.1315        10.074258      0.038296715    57.666378      57.19981       9.5728605      10.069275    
     29600   1.1569775     -0.51932413     1.2160939      1.1569775      31576.136      10.082107      10.187958      10.006657      10.051705      0.030084682    57.666378      57.19981       9.5728605      10.05926     
     29700   1.1730297     -0.5386835      1.2208122      1.1730297      31576.136      9.9830955      9.9713451      10.000614      9.9773273     -0.045490539    57.666378      57.19981       9.5728605      9.9771341    
     29800   1.1707352     -0.53295012     1.2231039      1.1707352      31576.136      10.053657      10.094883      10.064527      10.00156       0.032745712    57.666378      57.19981       9.5728605      10.041316    
     29900   1.1630735     -0.52166535     1.2228965      1.1630735      31576.136      10.107176      10.118265      10.200273      10.002991     -0.074134296    57.666378      57.19981       9.5728605      10.088051    
     30000   1.1665616     -0.52823908     1.2215546      1.1665616      31576.136      10.114084      10.314384      10.05173       9.9761389      0.015523279    57.666378      57.19981       9.5728605      10.092769    
     30100   1.1610851     -0.52222056     1.2193587      1.1610851      31576.136      10.11346       10.076417      10.172061      10.091901     -0.033507841    57.666378      57.19981       9.5728605      10.090025    
     30200   1.1625693     -0.52639166     1.2174138      1.1625693      31576.136      10.074869      10.09768       10.048105      10.078822     -0.0098063745   57.666378      57.19981       9.5728605      10.054232    
     30300   1.1682335     -0.53808251     1.2142191      1.1682335      31576.136      9.9731069      9.9871783      9.9883511      9.9437914      0.078545707    57.666378      57.19981       9.5728605      9.9617798    
     30400   1.1589222     -0.52825567     1.2100794      1.1589222      31576.136      10.075785      10.064198      10.043909      10.119247     -0.030700815    57.666378      57.19981       9.5728605      10.0477      
     30500   1.1623546     -0.53686843     1.206615       1.1623546      31576.136      10.073321      10.013279      10.061438      10.145245      0.11306691     57.666378      57.19981       9.5728605      10.042075    
     30600   1.1645588     -0.54271595     1.2040737      1.1645588      31576.136      10.014251      10.037487      9.9870208      10.018246      0.0012268444   57.666378      57.19981       9.5728605      9.9877226    
     30700   1.1652111     -0.54435846     1.2034097      1.1652111      31576.136      9.9893994      10.013975      9.9506577      10.003566      0.064198253    57.666378      57.19981       9.5728605      9.9652608    
     30800   1.1592255     -0.53389517     1.2048948      1.1592255      31576.136      10.020417      10.074208      9.9627692      10.024273      0.0048044573   57.666378      57.19981       9.5728605      9.9939515    
     30900   1.1617839     -0.535391       1.2072364      1.1617839      31576.136      9.9946876      9.9587097      10.001744      10.023609      0.026620772    57.666378      57.19981       9.5728605      9.9737259    
     31000   1.1620049     -0.5328765      1.2100825      1.1620049      31576.136      10.110651      10.15134       10.009188      10.171424      0.02797688     57.666378      57.19981       9.5728605      10.078285    
     31100   1.1654285     -0.53443125     1.2136629      1.1654285      31576.136      10.026942      10.167707      9.9807673      9.9323502     -0.062420044    57.666378      57.19981       9.5728605      10.008443    
     31200   1.1670826     -0.53351844     1.2170568      1.1670826      31576.136      10.086984      10.196362      10.014795      10.049796      0.019336951    57.666378      57.19981       9.5728605      10.064501    
     31300   1.1650425     -0.5273399      1.2201753      1.1650425      31576.136      10.090007      10.121974      10.084409      10.063636      0.098932153    57.666378      57.19981       9.5728605      10.07027     
     31400   1.1633015     -0.52336879     1.2215349      1.1633015      31576.136      10.068886      10.101999      9.9569832      10.147675      0.10028099     57.666378      57.19981       9.5728605      10.053105    
     31500   1.1691313     -0.53334882     1.2202994      1.1691313      31576.136      10.140637      10.175745      10.11141       10.134758      0.045478274    57.666378      57.19981       9.5728605      10.114804    
     31600   1.1655178     -0.5311146      1.2171136      1.1655178      31576.136      10.096545      10.034734      10.154244      10.100658      0.046451519    57.666378      57.19981       9.5728605      10.072944    
     31700   1.1583239     -0.5244383      1.2129993      1.1583239      31576.136      10.105018      10.104738      10.17711       10.033205     -0.062936559    57.666378      57.19981       9.5728605      10.076261    
     31800   1.1571242     -0.52577933     1.2098588      1.1571242      31576.136      10.094052      10.111136      10.10167       10.069348     -0.025954154    57.666378      57.19981       9.5728605      10.063502    
     31900   1.1635917     -0.53678559     1.2085535      1.1635917      31576.136      9.9926535      9.9105978      10.033457      10.033906     -0.058141961    57.666378      57.19981       9.5728605      9.9732588    
     32000   1.1601534     -0.53181744     1.2083644      1.1601534      31576.136      10.019085      10.113637      9.9863891      9.9572294     -0.039003459    57.666378      57.19981       9.5728605      9.9962533    
     32100   1.153759      -0.52189596     1.2086945      1.153759       31576.136      10.073987      10.062747      10.094502      10.064712      0.028333935    57.666378      57.19981       9.5728605      10.044739    
     32200   1.1616003     -0.53172853     1.2106235      1.1616003      31576.136      10.021723      10.058844      10.02474       9.9815837     -0.082310286    57.666378      57.19981       9.5728605      10.000826    
     32300   1.158841      -0.52490218     1.213311       1.158841       31576.136      10.033199      10.008132      10.132531      9.958933      -0.05061722     57.666378      57.19981       9.5728605      10.013579    
     32400   1.1607415     -0.52592379     1.2151401      1.1607415      31576.136      10.086779      10.034891      10.103707      10.121739      0.054082155    57.666378      57.19981       9.5728605      10.062404    
     32500   1.1629435     -0.5279314      1.2164354      1.1629435      31576.136      10.046051      10.001454      10.078644      10.058054      0.010009178    57.666378      57.19981       9.5728605      10.027976    
     32600   1.1687352     -0.53600042     1.2170537      1.1687352      31576.136      9.965616       9.9637793      9.933172       9.9998968     -0.019121643    57.666378      57.19981       9.5728605      9.958044     
     32700   1.1677359     -0.53687137     1.2146839      1.1677359      31576.136      10.047826      10.142819      9.9849984      10.01566       0.036695731    57.666378      57.19981       9.5728605      10.027782    
     32800   1.1674907     -0.54173118     1.2094563      1.1674907      31576.136      10.002238      10.067374      9.9750209      9.9643184      0.070572363    57.666378      57.19981       9.5728605      9.9825679    
     32900   1.1577322     -0.53361735     1.2029327      1.1577322      31576.136      10.048225      10.049483      10.130395      9.9647988      0.061340219    57.666378      57.19981       9.5728605      10.016381    
     33000   1.159518      -0.54185243     1.1973762      1.159518       31576.136      9.9786741      10.071715      9.9066345      9.9576726     -0.02528024     57.666378      57.19981       9.5728605      9.94982      
     33100   1.1639698     -0.55252157     1.1933847      1.1639698      31576.136      9.9837926      10.02694       9.9991833      9.9252546      0.030343592    57.666378      57.19981       9.5728605      9.9503179    
     33200   1.1508136     -0.53446119     1.1917112      1.1508136      31576.136      10.049514      10.082817      10.055365      10.01036      -0.050696867    57.666378      57.19981       9.5728605      10.006289    
     33300   1.1543373     -0.53627909     1.1951787      1.1543373      31576.136      10.054851      10.125746      10.086928      9.9518772      0.018895725    57.666378      57.19981       9.5728605      10.014438    
     33400   1.1496865     -0.52136033     1.2031216      1.1496865      31576.136      10.067278      10.057918      10.043446      10.10047       0.028342305    57.666378      57.19981       9.5728605      10.033281    
     33500   1.1671386     -0.5381929      1.2124663      1.1671386      31576.136      9.9690825      9.9160436      10.039397      9.9518071     -0.080568366    57.666378      57.19981       9.5728605      9.9564972    
     33600   1.1634956     -0.5259813      1.2192136      1.1634956      31576.136      10.049611      10.00325       10.132546      10.013037      0.051528338    57.666378      57.19981       9.5728605      10.033877    
     33700   1.1608814     -0.51934458     1.2219291      1.1608814      31576.136      10.109792      10.104885      10.126575      10.097917     -0.029809455    57.666378      57.19981       9.5728605      10.089379    
     33800   1.1747114     -0.54145526     1.2205629      1.1747114      31576.136      9.9666973      9.9001133      10.075455      9.9245234     -0.10961924     57.666378      57.19981       9.5728605      9.9625016    
     33900   1.1614378     -0.52708786     1.2150204      1.1614378      31576.136      10.025142      10.038016      10.037041      10.000369      0.005370901    57.666378      57.19981       9.5728605      10.008222    
     34000   1.1585983     -0.53102081     1.2068283      1.1585983      31576.136      10.036666      10.0711        10.008769      10.030128      0.055649643    57.666378      57.19981       9.5728605      10.010137    
     34100   1.1593695     -0.54185317     1.1971527      1.1593695      31576.136      10.038587      10.001527      10.08421       10.030023     -0.026146314    57.666378      57.19981       9.5728605      10.002147    
[...]
   1011700   0.015980557   -2.5774558     -2.5534856      0.015980557    31698.368      0.15499012     0.14193653     0.16758241     0.15545143    -0.010096947    57.73458       57.287766      9.5838279     -2.4170152    
   1011800   0.015977088   -2.577532      -2.5535671      0.015977088    31702.545      0.13920112     0.13327969     0.1487309      0.13559276    -0.0048133756   57.730238      57.285804      9.58614       -2.4309829    
   1011900   0.015886556   -2.5774194     -2.5535902      0.015886556    31702.131      0.14624368     0.14303712     0.16103816     0.13465578    -0.001144781    57.73351       57.283522      9.5858534     -2.4248059    
   1012000   0.015959255   -2.5775079     -2.5535696      0.015959255    31699.992      0.15970461     0.15384898     0.16639732     0.15886754    -0.0025385156   57.731923      57.286186      9.5850242     -2.4129409    
   1012100   0.015953594   -2.5774401     -2.5535104      0.015953594    31698.232      0.15433955     0.15042211     0.16318123     0.14941531    -0.0073373669   57.733546      57.282337      9.5848667     -2.4176134    
   1012200   0.016039874   -2.5774657     -2.5534066      0.016039874    31702.003      0.1325061      0.12473606     0.14182311     0.13095913    -0.0060428855   57.740963      57.282579      9.5847354     -2.4367202    
   1012300   0.016116558   -2.5774483     -2.5532742      0.016116558    31709.74       0.13388729     0.12066219     0.14984439     0.13115529    -0.0040586303   57.744439      57.286948      9.5857661     -2.4353427    
   1012400   0.016164588   -2.5774225     -2.5531763      0.016164588    31704.081      0.14576349     0.14995418     0.15177925     0.13555704    -0.0011354282   57.729068      57.295253      9.5852177     -2.4248069    
   1012500   0.016058396   -2.5772623     -2.5531754      0.016058396    31701.743      0.14052336     0.13569468     0.14191399     0.14396141    -0.0056027815   57.731048      57.288086      9.5853812     -2.4294299    
   1012600   0.016045303   -2.5773081     -2.5532408      0.016045303    31704.249      0.14713984     0.13916625     0.1566728      0.14558048    -0.00085917552  57.738881      57.286661      9.5850767     -2.4236586    
   1012700   0.016051476   -2.5773762     -2.5532996      0.016051476    31700.116      0.14929893     0.13904026     0.16388499     0.14497155    -0.0022478235   57.735778      57.285345      9.5845626     -2.4218331    
   1012800   0.01602858    -2.5774471     -2.5534049      0.01602858     31710.366      0.12632281     0.12035787     0.13558329     0.12302728    -0.0011650505   57.738213      57.292158      9.5861172     -2.4421343    
   1012900   0.015945854   -2.5773726     -2.5534545      0.015945854    31709.545      0.12678582     0.12154051     0.14106505     0.11775191     0.0015280284   57.73541       57.291602      9.5864276     -2.4417789    
   1013000   0.015927875   -2.5773819     -2.5534908      0.015927875    31710.829      0.12930864     0.12024473     0.13905798     0.1286232     -0.0065465556   57.743018      57.290834      9.5856809     -2.4395884    
   1013100   0.015915193   -2.5774089     -2.5535368      0.015915193    31715.898      0.12313379     0.11664875     0.13124488     0.12150775    -0.0049571745   57.742765      57.296683      9.5862764     -2.4450563    
   1013200   0.015935693   -2.5774534     -2.5535506      0.015935693    31717.169      0.11685882     0.11561615     0.12194609     0.11301421     0.00040746953  57.738425      57.302087      9.5864772     -2.4505941    
   1013300   0.015978623   -2.5774989     -2.5535317      0.015978623    31714.206      0.1317742      0.12616778     0.14198447     0.12717033    -0.012989928    57.738825      57.300693      9.5857484     -2.4374452    
   1013400   0.016016227   -2.5775135     -2.5534898      0.016016227    31711.49       0.14107754     0.13566385     0.15307247     0.1344963     -0.0065634484   57.738832      57.288585      9.5869519     -2.4292182    
   1013500   0.016081382   -2.5775363     -2.5534149      0.016081382    31714.055      0.1258153      0.11690174     0.13836634     0.12217781    -0.010071026    57.736397      57.293271      9.5873475     -2.4425784    
   1013600   0.01598945    -2.5773074     -2.5533239      0.01598945     31723.499      0.10422198     0.10471149     0.10080938     0.10714506    -0.0035595332   57.740772      57.312722      9.5862217     -2.4614826    
   1013700   0.016031447   -2.5772708     -2.5532243      0.016031447    31717.721      0.11386697     0.10315511     0.12506546     0.11338033    -0.0030588436   57.744313      57.293754      9.5870607     -2.452902     
   1013800   0.016049267   -2.577292      -2.5532188      0.016049267    31719.111      0.12080855     0.10451517     0.14133443     0.11657606    -0.00061172313  57.751771      57.287828      9.5872341     -2.446776     
   1013900   0.016064982   -2.5773854     -2.5532886      0.016064982    31718.596      0.12531008     0.12580107     0.12439865     0.12573051    -0.011744464    57.739198      57.304799      9.5863264     -2.4428814    
   1014000   0.016055404   -2.5775092     -2.5534267      0.016055404    31721.892      0.10746656     0.093332072    0.11812334     0.11094426    -0.00085298538  57.750993      57.29911       9.5863161     -2.4587311    
   1014100   0.016095786   -2.5776877     -2.5535447      0.016095786    31725.468      0.10398625     0.10816214     0.10991081     0.093885809   -0.0022950529   57.746359      57.304831      9.5872093     -2.4619055    
   1014200   0.015933339   -2.5774669     -2.5535676      0.015933339    31721.151      0.11398766     0.10303086     0.12378965     0.11514247    -0.0076929837   57.748932      57.298323      9.5865662     -2.4531282    
   1014300   0.015991126   -2.5775749     -2.5535888      0.015991126    31726.297      0.10536356     0.10205567     0.11170544     0.10232956    -0.011801013    57.744255      57.300174      9.588588      -2.4607334    
   1014400   0.015901475   -2.5774304     -2.5535789      0.015901475    31727.907      0.10121521     0.0960781      0.11125248     0.096315043   -0.0032309582   57.743054      57.308024      9.5879606     -2.4643748    
   1014500   0.015997629   -2.5775444     -2.5535486      0.015997629    31727.653      0.09404648     0.087586785    0.097657504    0.096895149   -0.0029122321   57.748182      57.313295      9.5861507     -2.4706632    
   1014600   0.016067301   -2.577609      -2.5535087      0.016067301    31730.514      0.092255134    0.086922665    0.10147477     0.088367972   -0.0092879275   57.748177      57.308053      9.587893      -2.4721947    
   1014700   0.015946542   -2.5773543     -2.5534351      0.015946542    31728.568      0.10257452     0.096353706    0.10054736     0.11082249    -0.011562412    57.749403      57.308713      9.5869908     -2.4630312    
   1014800   0.016088852   -2.5774539     -2.5533213      0.016088852    31727.971      0.11126268     0.10172726     0.12377617     0.1082846     -0.0012328004   57.747386      57.306763      9.5874717     -2.4552619    
   1014900   0.016082721   -2.577341      -2.5532176      0.016082721    31728.228      0.10105226     0.092534017    0.10364064     0.10698211    -0.0054974092   57.754332      57.300237      9.5874879     -2.4641562    
   1015000   0.016135779   -2.5773909     -2.5531879      0.016135779    31734.791      0.08591532     0.086065249    0.094160436    0.077520275   -0.0076828381   57.746821      57.311312      9.5888651     -2.4774517    
   1015100   0.01617665    -2.5774843     -2.55322        0.01617665     31732.403      0.090686345    0.076616463    0.10344412     0.091998451   -0.0064680909   57.757299      57.302559      9.5878683     -2.473284     
   1015200   0.016101154   -2.5775371     -2.5533861      0.016101154    31738.206      0.085653987    0.084865675    0.093860847    0.078235438   -0.0079700835   57.755311      57.312813      9.5882364     -2.4778721    
   1015300   0.015994428   -2.577504      -2.553513       0.015994428    31739.035      0.076556066    0.062640245    0.076816337    0.090211614   -0.0054047335   57.759318      57.311992      9.5879588     -2.4860182    
   1015400   0.01596171    -2.5775041     -2.5535622      0.01596171     31741.273      0.08155492     0.087080558    0.096706656    0.060877546   -0.0038805758   57.756343      57.30469       9.5903508     -2.4816551    
   1015500   0.016051196   -2.5776415     -2.5535654      0.016051196    31733.764      0.093476299    0.08404162     0.097367288    0.099019988   -0.0096048706   57.755163      57.310834      9.5872499     -2.4711667    
   1015600   0.015851991   -2.5773538     -2.5535765      0.015851991    31740.025      0.079764947    0.07107025     0.089604053    0.078620536   -0.0022728731   57.762673      57.308577      9.5882722     -2.4832503    
   1015700   0.015896603   -2.5774154     -2.5535712      0.015896603    31742.309      0.067283244    0.070519781    0.068752759    0.062577191   -0.0023042927   57.75169       57.314054      9.5898693     -2.4942455    
   1015800   0.016022672   -2.577581      -2.5535476      0.016022672    31742.393      0.075058212    0.065523017    0.081349521    0.078302099    0.0042433907   57.763961      57.313605      9.5879326     -2.4873663    
   1015900   0.01603332    -2.577555      -2.5535057      0.01603332     31744.534      0.07793772     0.080970961    0.081109549    0.07173265    -0.0035802595   57.754459      57.313485      9.5901769     -2.4847808    
   1016000   0.016016315   -2.5774671     -2.5534433      0.016016315    31743.067      0.079906905    0.064976915    0.085004052    0.08973975    -0.0029440128   57.761004      57.314186      9.5885297     -2.4829852    
   1016100   0.016037873   -2.5774279     -2.5533718      0.016037873    31744.914      0.07329793     0.076082255    0.082089203    0.061722332    0.0050569548   57.758331      57.317977      9.5888973     -2.4887374    
   1016200   0.016063331   -2.5774076     -2.5533132      0.016063331    31747.043      0.062509598    0.059514804    0.063552683    0.064461308   -0.0021457445   57.76038       57.320649      9.5887532     -2.4981884    
   1016300   0.016036637   -2.5773439     -2.5532896      0.016036637    31746.309      0.068844106    0.073771014    0.08325437     0.049506934    0.00019466368  57.756134      57.31264       9.5905763     -2.49258      
   1016400   0.016051633   -2.5774109     -2.5533341      0.016051633    31744.214      0.078171531    0.067140061    0.083366086    0.084008446   -0.0041910363   57.759227      57.319854      9.588223      -2.4844037    
   1016500   0.016016773   -2.5774891     -2.5534646      0.016016773    31743.266      0.066284792    0.067620016    0.061977095    0.069257265   -0.0036433788   57.752041      57.323613      9.5885009     -2.4950175    
   1016600   0.015942781   -2.5775068     -2.5535933      0.015942781    31748.993      0.063828143    0.056869097    0.076075493    0.058539838   -0.00021160658  57.760805      57.321304      9.5891621     -2.4973022    
   1016700   0.016003528   -2.5776487     -2.5536441      0.016003528    31749.749      0.059578173    0.061120187    0.047971429    0.069642903    0.0009292799   57.754634      57.328332      9.5892392     -2.5010999    
   1016800   0.015918025   -2.5775254     -2.5536491      0.015918025    31751.597      0.060689675    0.057898466    0.070591755    0.053578804   -0.0018538313   57.759044      57.323061      9.589947      -2.5001214    
   1016900   0.015988054   -2.5775954     -2.553614       0.015988054    31749.447      0.064225526    0.05986922     0.065295609    0.067511749   -0.0062461314   57.755654      57.328154      9.5890086     -2.4969716    
   1017000   0.016044188   -2.5776313     -2.5535656      0.016044188    31755.986      0.055856155    0.057893487    0.059083437    0.050591541   -0.0044528984   57.765419      57.325782      9.5897589     -2.5042943    
   1017100   0.016049762   -2.5775604     -2.5534864      0.016049762    31756.904      0.047218156    0.048409138    0.048033647    0.045211682   -0.0061136968   57.761116      57.324024      9.5910445     -2.5118336    
   1017200   0.016122178   -2.5775792     -2.5533966      0.016122178    31760.198      0.053049213    0.044867438    0.055357339    0.058922861   -0.0030603827   57.766809      57.32956       9.590168      -2.5065951    
   1017300   0.016051734   -2.5773737     -2.5532967      0.016051734    31757.57       0.051062126    0.055249061    0.06423922     0.033698096    0.0058759281   57.763058      57.324876      9.5907806     -2.508252     
   1017400   0.016103857   -2.5773467     -2.5531916      0.016103857    31761.462      0.039812586    0.024396297    0.050208847    0.044832613   -0.0080906802   57.772323      57.326998      9.5900629     -2.5180665    
   1017500   0.016143822   -2.5773144     -2.5530993      0.016143822    31766.774      0.038717115    0.039052265    0.037053405    0.040045675   -0.00039745217  57.770845      57.331519      9.5911559     -2.518935     
   1017600   0.016158787   -2.5773048     -2.5530673      0.016158787    31761.817      0.048420765    0.038556709    0.058372788    0.048332799   -0.004343401    57.767654      57.327353      9.5908857     -2.510347     
   1017700   0.016038833   -2.5772387     -2.5531811      0.016038833    31757.957      0.051776015    0.055567904    0.048260571    0.051499569   -0.0042296983   57.759716      57.329465      9.590685      -2.5075061    
   1017800   0.016095424   -2.5775162     -2.5533737      0.016095424    31765.244      0.031580041    0.028251122    0.038103003    0.028385997   -0.003346914    57.77121       57.326448      9.5914816     -2.5255085    
   1017900   0.016072989   -2.5775805     -2.5534717      0.016072989    31765.229      0.035759754    0.036609718    0.029505377    0.041164166   -0.00066193631  57.768389      57.33321       9.5908141     -2.5219185    
   1018000   0.016014329   -2.5775543     -2.5535335      0.016014329    31764.418      0.040697924    0.035359699    0.050316297    0.036417776   -3.979681e-05   57.765558      57.33228       9.591195      -2.5176239    
   1018100   0.015979628   -2.5775535     -2.5535847      0.015979628    31764.219      0.036932874    0.03527263     0.034671819    0.040854175   -0.0041582751   57.771842      57.335078      9.5896236     -2.5209974    
   1018200   0.016034804   -2.5776741     -2.5536225      0.016034804    31766.673      0.032288378    0.031163913    0.044008307    0.021692915   -0.0089971684   57.770524      57.329688      9.591485      -2.525131     
   1018300   0.016000953   -2.577646      -2.5536453      0.016000953    31772.001      0.024557016    0.020976252    0.026923422    0.025771375   -0.00028494434  57.777787      57.330582      9.5917382     -2.5319723    
   1018400   0.01599308    -2.577625      -2.5536361      0.01599308     31771.282      0.025616926    0.019040025    0.025866736    0.031944017    0.0018186077   57.774992      57.336334      9.5910227     -2.5310282    
   1018500   0.015969723   -2.5775489     -2.5535949      0.015969723    31770.624      0.035255034    0.040410338    0.036091958    0.029262806   -0.0061090494   57.764828      57.339571      9.5919703     -2.5224818    
   1018600   0.016004819   -2.5775303     -2.5535237      0.016004819    31772.294      0.02999728     0.034157952    0.039823199    0.016010687   -0.0015624257   57.765045      57.337929      9.5927131     -2.5270492    
   1018700   0.016065034   -2.5775136     -2.5534167      0.016065034    31770.959      0.015795997    0.0059701598   0.023559555    0.017858277   -0.00059141982  57.770635      57.333894      9.592057      -2.5394763    
   1018800   0.016079776   -2.5774453     -2.5533263      0.016079776    31776.602      0.017162501    0.0098761176   0.020320859    0.021290528   -0.0047441808   57.780489      57.339281      9.5912231     -2.5381772    
   1018900   0.016038565   -2.5773347     -2.5532775      0.016038565    31772.571      0.024589788    0.030822627    0.019471548    0.023475189   -0.0058110591   57.7683        57.338633      9.5921384     -2.5315753    
   1019000   0.01599102    -2.577271      -2.5532851      0.01599102     31767.59       0.032150107    0.030335775    0.033952179    0.032162367   -0.00099805645  57.765756      57.335027      9.5916601     -2.5249148    
   1019100   0.016085019   -2.5775318     -2.553405       0.016085019    31772.604      0.025453238    0.027617416    0.022473837    0.026268461   -0.005244916    57.768634      57.342003      9.5915292     -2.5309406    
   1019200   0.01606295    -2.5776791     -2.5535853      0.01606295     31780.905      0.0022860709   0.00052638741  0.0033905906   0.0029412346   0.0029220596   57.779954      57.341411      9.5922543     -2.5515672    
   1019300   0.015932038   -2.5775528     -2.5536554      0.015932038    31782.94       0.0068642162   0.0083914846   0.0035407143   0.0086604497   0.0035902554   57.777487      57.344897      9.5926953     -2.5475953    
   1019400   0.015951503   -2.5775796     -2.553653       0.015951503    31780.495      0.011425631    0.0031996941   0.017070846    0.014006353   -0.0028384905   57.780551      57.336051      9.5929283     -2.5435666    
   1019500   0.016003905   -2.5776284     -2.5536232      0.016003905    31778.873      0.015467313    0.017225858    0.014607011    0.014569069   -0.00034209508  57.776877      57.341638      9.5921141     -2.5399695    
   1019600   0.015967527   -2.5775171     -2.5535664      0.015967527    31780.875      0.01703265     0.010630318    0.01696306     0.023504573   -0.0021867658   57.779264      57.344494      9.5918443     -2.53853      
   1019700   0.015958146   -2.5774297     -2.5534932      0.015958146    31785.068      0.0037932178   0.011931119   -0.00037325631 -0.00017820919  0.002535459    57.775444      57.348821      9.5930204     -2.5501441    
   1019800   0.015992699   -2.5773984     -2.55341        0.015992699    31792.13      -0.0084565869  -0.019962619    0.0018628707  -0.007270012   -0.0072308454   57.786506      57.346469      9.5937082     -2.5608781    
   1019900   0.016000378   -2.5773422     -2.5533423      0.016000378    31787.161     -0.015123884   -0.0088537803  -0.024096825   -0.012421046    0.0019611361   57.776364      57.349306      9.593418      -2.5666964    
   1020000   0.016115973   -2.577474      -2.5533007      0.016115973    31787.845      0.0075971238   0.0051739206   0.0087558953   0.0088615555  -0.0024390093   57.781168      57.347799      9.5930789     -2.5465924    
Loop time of 9.6961 on 6 procs for 20000 steps with 36000 atoms

Performance: 891080.037 tau/day, 2062.685 timesteps/s
92.6% CPU use with 6 MPI tasks x no OpenMP threads

MPI task timing breakdown:
Section |  min time  |  avg time  |  max time  |%varavg| %total
---------------------------------------------------------------
Pair    | 2.3538     | 2.4713     | 2.6679     |   6.9 | 25.49
Neigh   | 0.00021728 | 0.00023334 | 0.00024978 |   0.0 |  0.00
Comm    | 2.0955     | 2.1911     | 2.2918     |   4.7 | 22.60
Output  | 0.032616   | 0.032881   | 0.034031   |   0.3 |  0.34
Modify  | 4.7462     | 4.8463     | 4.9684     |   3.2 | 49.98
Other   |            | 0.1543     |            |       |  1.59

Nlocal:           6000 ave        6032 max        5979 min
Histogram: 2 0 1 1 0 0 1 0 0 1
Nghost:           5323 ave        5361 max        5275 min
Histogram: 1 0 0 1 0 1 1 0 1 1
Neighs:              0 ave           0 max           0 min
Histogram: 6 0 0 0 0 0 0 0 0 0

Total # of neighbors = -6
Ave neighs/atom = -0.00016666667
Neighbor list builds = 2000
Dangerous builds not checked
write_data	glass.readdata nocoeff
System init for write_data ...
  generated 0 of 1 mixed pair_coeff terms from geometric mixing rule

Total wall time: 0:05:41
