LAMMPS data file via write_data, version 15 May 2015, timestep = 510000

1000 atoms
2 atom types

-1.9761599264459306e-01 9.4134469926443316e+00 xlo xhi
-1.5873530640758826e-01 9.3745663064076119e+00 ylo yhi
-1.7851477328042797e-01 9.3943457732805236e+00 zlo zhi

Masses

1 2
2 1

Atoms # atomic

627 2 2.0179420894148387e-01 4.9444886546258537e-01 9.8559480844808212e-01 0 0 0
911 2 1.0004364688877188e+00 5.1018618174554198e-01 4.2203787453005959e-01 1 -2 0
289 2 1.8370311461436533e+00 2.7814790424292052e-01 7.9035732513808654e-01 2 0 1
284 1 9.6314621287238722e-02 1.5068484174898096e+00 6.6497319994946835e-01 0 1 0
101 2 1.6911328454785359e+00 1.1636961923479752e+00 5.4365474241189138e-01 -1 3 -1
640 1 2.7426357774551597e+00 1.2921903241911104e+00 5.6136580820935811e-01 -1 -2 1
668 2 3.0921200147378991e-01 2.2889096161742764e+00 1.4582418831714627e-02 -2 0 0
19 2 6.0333804678820946e-01 2.4324666030557696e+00 9.1458586454973689e-01 1 0 0
649 2 1.0551763386351398e+00 1.8131356151269753e+00 4.3698131932475248e-01 3 1 0
10 2 1.1306384622836847e+00 2.6863510531591448e+00 2.3552295790875544e-01 1 1 1
548 1 1.9941900352710005e+00 2.2144131547682004e+00 6.2260691937820833e-01 1 -1 0
825 2 5.5342103272576293e-01 3.3289869791342475e+00 5.8521989170774735e-01 0 2 1
132 2 1.6938816991098871e+00 3.4036263619481613e+00 2.0101605416080343e-01 -1 2 0
268 2 2.5932198045658241e+00 3.4967282526643917e+00 2.4056863077831758e-01 1 2 0
427 1 1.0285231570684337e+00 4.1789299180823472e+00 2.3065145462958464e-01 3 -3 -1
135 1 2.0040833914785643e+00 4.2057640855830982e+00 7.4698899613440173e-01 4 1 1
677 1 2.7742546127005911e+00 4.4756065235614573e+00 1.5818735223280755e-02 1 1 -1
496 1 1.0935106036660480e+00 2.6278528543679897e-01 1.4976080710300232e+00 1 -1 -1
988 2 2.7375307594559195e+00 3.2680415064476703e-01 1.0348566024330412e+00 0 0 1
583 2 2.0663252269995467e+00 6.4093917608971540e-02 1.6399628195314362e+00 5 -1 -1
596 1 2.7165913477354855e+00 7.8731219728497648e-01 1.9184235842002502e+00 0 1 1
710 1 2.3198706999653657e-01 8.9031257539499253e-01 1.8931944243858605e+00 0 -1 2
898 2 9.1306397217095281e-01 1.1332448676594999e+00 1.0996387901354130e+00 1 -2 1
11 2 1.2082366615016620e+00 1.2263274837148015e+00 2.0218965452535045e+00 1 -1 1
861 2 1.8329812562554539e+00 9.4326054973466555e-01 1.4316561222253426e+00 2 1 -1
499 2 5.6941255512341427e-01 1.8316089644241567e+00 1.6057069592717907e+00 1 1 2
306 2 1.4722386491816111e+00 1.7707333689111198e+00 1.3153297629853287e+00 0 0 2
664 1 2.4485372185389807e+00 1.7770143224859933e+00 1.5273573354878647e+00 1 1 -1
824 2 1.8196058416543331e-01 3.1155119610790254e+00 1.3813469803249441e+00 -1 1 0
806 2 1.4404502759419910e+00 2.7181600119079912e+00 1.3524762496064526e+00 -2 3 -2
290 2 9.4561480260192776e-01 3.2003016995043145e+00 1.9658686499476659e+00 1 -1 1
572 2 2.1961734169270377e+00 3.1608990266302164e+00 1.0236096343102554e+00 -2 1 0
550 1 2.0403823124441218e+00 3.1055476748492405e+00 2.0685141151173019e+00 0 -2 0
984 1 6.0002026515712104e-01 4.0374763648311545e+00 1.3361685211997913e+00 2 -2 -1
674 2 1.5369609199318275e+00 3.7099452614314470e+00 1.4638621677311385e+00 0 1 1
604 2 2.4200803554302857e+00 3.9341006275266466e+00 1.6026989054242882e+00 -2 -2 1
312 2 7.8831685298394372e-01 6.6203887446258458e-01 2.6736196648044630e+00 0 0 1
141 2 5.2299028348555943e-01 -9.6496702960089165e-02 3.2146403815138709e+00 3 -2 -3
759 1 1.7668756653327637e+00 5.2408414938786341e-01 2.4569683781588827e+00 1 1 3
483 1 1.5747629011156321e+00 -1.4997926616151749e-01 3.2956323895756010e+00 0 1 0
832 2 2.5420501635743871e+00 6.0535566481665026e-02 3.0446813407554263e+00 2 -3 1
714 2 5.6796172306560577e-01 1.6266597306072588e+00 2.5147388696770530e+00 0 -1 -2
443 1 -1.3218586633514931e-01 1.0678254899632200e+00 2.9386430632780076e+00 1 0 -2
616 2 1.3005293441170915e+00 1.3663447815873373e+00 2.9652218477595165e+00 1 2 -1
537 2 2.0639805548859376e+00 1.4881759798047625e+00 2.4343144309413050e+00 -1 2 2
874 2 2.6764160537923138e+00 9.2757301757020572e-01 2.8801783059928776e+00 2 -1 2
31 1 3.3992112251116968e-01 2.6451133287449298e+00 2.6737526026597749e+00 3 0 1
439 2 1.4320080564091606e+00 2.2341562274132460e+00 3.3351897032043802e+00 -1 0 0
332 1 1.3303850458135806e+00 2.2290850710279146e+00 2.2743162209751540e+00 -1 1 0
648 1 2.2876627582492075e+00 2.4174375997857358e+00 2.8392590127905661e+00 0 2 0
305 1 1.3795563426631050e+00 3.2167742233937671e+00 2.8893393815808519e+00 1 1 3
612 2 2.3812958980213290e+00 3.3779263138107662e+00 3.0766152244424734e+00 -1 -1 -3
756 1 6.9442106151926253e-03 3.6681780762273015e+00 2.2176551617621323e+00 1 0 2
382 2 1.4269221928807252e+00 4.2586401824950544e+00 3.2417111955561340e+00 -1 2 -1
772 1 1.0354241844399319e+00 4.1269451745206034e+00 2.3359719753330954e+00 -2 -2 0
582 2 2.0217780422429095e+00 4.0218718208234661e+00 2.5134328301713937e+00 1 -2 0
779 2 5.5369503911273399e-01 -4.6668552581035305e-02 4.1612348163720005e+00 -1 2 0
511 2 1.4346547332431414e-01 6.8900644660043164e-01 4.6016931162656221e+00 -2 0 0
976 2 1.7019786743931102e+00 6.7121887855571316e-01 3.9405090448042843e+00 0 0 -1
276 1 2.7642800445163731e+00 6.3348600026832680e-01 3.8497849857623514e+00 1 2 0
593 1 6.8770831308487113e-01 8.5287116568079058e-01 3.7016077072091287e+00 1 0 1
469 1 1.3944050999262263e+00 1.6384456601629320e+00 4.2677885120178010e+00 4 -1 -3
328 1 2.1317233304488568e+00 1.4983710132302883e+00 3.4744712388986367e+00 0 2 -1
665 1 9.7541482103175925e-02 2.2155233838686446e+00 4.5795868552061609e+00 0 0 -2
489 1 5.0116011329572785e-01 1.9112329255437164e+00 3.5247337247364356e+00 -1 -2 0
270 2 1.8464818380293360e+00 2.5859840836524670e+00 4.5161779378354785e+00 2 0 0
320 1 2.5667772937158380e+00 1.9132395750777862e+00 4.3702390303579790e+00 0 -2 1
190 2 2.9962119399083966e+00 1.9628272075540187e+00 3.4439276683487203e+00 3 2 -1
76 1 2.6908157060443955e-01 3.6450182929941035e+00 4.5439137254178652e+00 -1 1 2
402 2 7.5810137462220584e-01 3.6305030495973254e+00 3.6116092098341395e+00 1 -1 -1
392 1 -5.5321160649445866e-02 2.8991861249841637e+00 3.7129089115192597e+00 1 -1 0
645 1 9.3354162232172899e-01 2.7377885096739316e+00 4.1113167462465121e+00 0 -1 0
490 1 1.7012860379804753e+00 3.4509318873404058e+00 3.8848989684068451e+00 -3 2 0
830 1 2.6548624559402483e+00 2.8900930812058694e+00 3.8891001770012181e+00 -1 2 -2
467 1 1.0133901636536918e-01 4.4029327551407071e+00 3.7757851706670760e+00 -1 -1 2
457 1 1.7721858561893538e+00 4.3487380806387721e+00 4.5917256246529510e+00 0 -3 -1
448 1 2.6296877595774939e+00 3.9903750720302886e+00 3.9583296862745314e+00 1 0 2
113 1 6.2822011730594718e-01 1.0954868227615600e-03 5.1618131154914648e+00 0 1 0
314 2 1.1919821117454132e+00 6.4445400388800222e-01 5.7218457218747876e+00 2 -2 2
364 2 1.3203888550329257e+00 6.7450227381495587e-01 4.8094323481953163e+00 -1 -1 0
133 1 1.9893855812403678e+00 8.2937404352765282e-02 5.4184363132456372e+00 -1 0 3
631 2 2.7857568254449401e+00 8.3410420482439518e-02 4.7486603356426844e+00 -2 0 0
424 1 7.3568761615802925e-01 1.3873201759590172e+00 5.1676079237869477e+00 1 -1 3
635 1 2.2448427389998913e+00 9.5065542980966655e-01 4.7544158017765890e+00 2 0 -1
223 2 2.9253917366152349e+00 1.5375565476773851e+00 5.2533941299778455e+00 -1 -1 0
706 2 2.2199045230835723e-01 2.0841109611656528e+00 5.6689163205406219e+00 1 -1 1
870 1 1.8616579898149115e+00 1.7933196231191026e+00 5.2733920808939319e+00 0 1 -1
618 1 1.0215674361771201e+00 2.4143158723711498e+00 5.1094581899423801e+00 1 0 1
120 2 1.5912719021217836e-01 2.9415134955184938e+00 5.2834913344783727e+00 4 -1 0
917 2 9.7744102117822629e-01 3.3550605449558040e+00 5.3157345701095817e+00 0 -3 0
629 1 1.7684031440255235e+00 2.7911419722777242e+00 5.7869498977479834e+00 1 -2 1
811 1 2.8135433606888154e+00 3.2328866363230575e+00 5.6199343802489858e+00 0 2 3
954 2 2.2779606267275798e+00 3.3828227791064296e+00 4.7043299647063668e+00 3 0 -1
859 1 8.6543894819696598e-01 4.3114167027282191e+00 5.3657764361414975e+00 0 -1 0
232 1 1.8367589723447066e+00 3.8154862267411676e+00 5.4947479467030043e+00 0 2 0
241 1 2.7671851164348307e+00 4.1977322693475152e+00 5.0443800240847008e+00 -2 -1 0
795 2 3.8596054315497696e-01 3.2702122707737508e-01 6.0949489143082882e+00 0 0 0
650 2 4.4253971691895877e-02 4.8087339425953834e-01 6.9274174145190388e+00 2 0 -3
89 1 8.4318787236248149e-01 -1.1129536558540758e-01 6.9251869459158968e+00 0 2 -1
348 1 1.7489974314653423e+00 3.5475574956976841e-01 6.5302866848419896e+00 -1 1 1
875 1 -1.8158422177721031e-01 1.2151924838437504e+00 6.2131809796971984e+00 0 -3 -1
235 1 9.2253620669332959e-01 1.0394793800116036e+00 6.5989731816393498e+00 -1 -1 -2
703 2 1.8422106122396644e+00 1.6611819699019008e+00 6.5500304797457263e+00 -3 1 0
143 1 2.3865518759211128e+00 1.0549472297128957e+00 5.9424045525103626e+00 0 0 0
317 2 2.7201169300700538e+00 1.5001621218172907e+00 6.8070028395071169e+00 2 2 2
736 1 4.7830378590978040e-01 2.0243178395024617e+00 6.7046530042280246e+00 0 0 2
751 2 1.1525790102442375e+00 1.9280204365182088e+00 5.9876661597561247e+00 2 1 -1
619 1 1.4422208217354162e+00 2.5951730091973650e+00 6.7844390223793951e+00 -1 -3 -4
115 1 2.6192054249607182e+00 2.1690515998471089e+00 6.0117578374305864e+00 0 1 1
992 1 4.5058232584806934e-01 3.1281972042441604e+00 6.9030609932121463e+00 1 -1 -2
899 2 7.5525822911484830e-01 2.7701984652393756e+00 6.0105028661896842e+00 2 0 0
222 2 2.9643388445069724e-01 3.5714352124204867e+00 5.9546907084297001e+00 2 1 -1
30 2 -1.6286869147736388e-01 2.7477958762925243e+00 6.1759367117746002e+00 1 -4 1
971 2 1.7084079890857402e+00 3.5570947227800760e+00 6.4624764323024246e+00 0 -1 -2
197 1 2.5116346283173390e+00 3.0563899038095594e+00 6.6790596647287961e+00 -1 0 -1
639 1 -1.0224750768309859e-01 4.4742229071276522e+00 5.9285175055885757e+00 0 -1 0
170 1 8.9585566677065409e-01 4.1625900592362424e+00 6.4797508445842400e+00 -2 -1 -1
230 2 1.9049999503568844e+00 4.3775061607870578e+00 6.8638185480485676e+00 0 0 2
504 1 2.6000408764829439e+00 4.1430663877166500e+00 6.1720981647174211e+00 -1 1 -1
518 1 1.3824473092215881e+00 5.9003802449027398e-01 7.5719515966672555e+00 -2 2 1
602 1 2.4052347427222704e+00 1.1509443595620056e-01 7.3970047935060101e+00 1 3 0
576 1 4.1588808959429702e-01 1.2382039460077108e+00 7.5597822757626183e+00 0 0 1
99 1 1.3526378105754591e+00 1.6835899722356875e+00 7.4264237415902672e+00 0 0 -1
647 1 2.3315752010037252e+00 1.1383692795033293e+00 7.7037414089450742e+00 1 1 0
856 2 5.1350606666302834e-01 2.3290461010939794e+00 7.6513707352724065e+00 2 -1 -1
773 1 1.4099221403580964e+00 2.6583301205822143e+00 7.8951142427901537e+00 0 1 -1
415 1 2.3089852518083922e+00 2.2080353800830106e+00 7.3768180514960511e+00 1 1 -1
5 1 4.5346831172742053e-01 3.3103524728356550e+00 8.0144411525871266e+00 1 0 0
288 1 1.3104032650311088e+00 3.6235421619790147e+00 7.3775685557137631e+00 1 0 2
924 1 2.3117435878251515e+00 3.2593362657148512e+00 7.7900630758002398e+00 0 2 -2
671 1 2.8859462405622172e-01 4.1887942485715444e+00 7.3632798114916165e+00 -1 0 -2
217 2 9.2395484983548881e-01 4.2349139405154643e+00 8.1403067399489171e+00 1 -1 -3
92 1 1.9684324761821617e+00 4.3202921690859641e+00 7.9065515864316165e+00 0 0 2
615 1 2.8304598298715633e+00 4.0333459912123004e+00 7.2157573999832989e+00 0 1 -1
564 1 7.0955960436586885e-01 6.9864171562947996e-01 8.4978384649425838e+00 0 0 0
843 2 -4.7909721289202151e-02 4.5129879433759290e-01 9.1788979113802860e+00 -2 2 -1
399 1 8.0725197521090775e-01 -1.1425363692016702e-01 9.2226134623579341e+00 0 2 -3
760 1 1.6989566157171648e-02 -1.1643095462540488e-01 8.3149493413303670e+00 2 0 -3
37 2 1.4914366131341981e+00 6.6956020243240183e-02 8.4538374513142287e+00 -2 2 1
775 1 1.8044256813947341e+00 3.7279393305672071e-01 9.3691007211652018e+00 1 -1 0
294 1 2.5134823056235645e+00 3.2767721890618556e-01 8.4758502519300265e+00 1 1 -1
355 2 2.8538433310955118e+00 6.0961115575075897e-01 9.3817245409919607e+00 2 0 3
679 1 9.9251511542176263e-02 1.4407465536122352e+00 9.0956394368804663e+00 0 -2 0
247 2 1.6855118018102937e+00 9.6982765143735006e-01 8.5227895048721969e+00 1 2 -1
892 2 1.1386122736837456e+00 1.2007756461742543e+00 9.3161052429493729e+00 2 -2 -3
819 2 2.1291047458849817e+00 1.2971658028054991e+00 9.2631831206592743e+00 1 0 -1
666 1 2.9960020528312126e+00 1.3684272264835733e+00 8.6045556038693025e+00 0 -1 1
610 1 -1.5531069750098547e-02 2.4423408687851897e+00 8.5528443251059851e+00 2 0 0
864 1 9.4335119435604731e-01 1.7790029590628926e+00 8.4494679185454622e+00 1 2 0
285 2 1.5662921874652276e+00 2.0448306857775336e+00 9.2681567792373727e+00 -1 2 -2
871 1 2.9553777840102780e+00 2.4617107352169278e+00 8.2457895764766604e+00 1 0 0
492 1 2.0337461353786539e+00 1.9003495782530702e+00 8.3908931914888765e+00 0 -1 -1
915 1 2.6602654381111090e+00 2.1135023498675531e+00 9.3319372207174585e+00 -1 0 -2
981 2 1.5754850349172345e-01 3.1889145235137546e+00 9.3364393772717840e+00 3 1 -1
868 1 9.4819982777157197e-01 2.7803521415509813e+00 8.8679717889562646e+00 2 0 0
65 2 1.4650421767364397e+00 3.5456754839492381e+00 8.3629522318989800e+00 2 -1 0
622 1 2.0113346785585406e+00 2.8633220419252532e+00 8.8685380943029504e+00 2 0 0
587 2 2.9925085009640382e+00 3.0188890573034302e+00 9.0723770264282226e+00 1 1 -2
153 2 7.5937266342540899e-01 3.7627073100833974e+00 8.9249348139148843e+00 -1 1 -1
854 2 7.3100788217900003e-02 4.1485331356843824e+00 8.4485915991243186e+00 2 -2 1
468 2 1.0942245613225876e-02 4.1629530127791377e+00 9.3804115290970760e+00 1 3 -1
545 2 1.4937707213961966e+00 4.3361369999171657e+00 8.8319421958645261e+00 3 -1 -4
855 1 2.3848676508754498e+00 3.8577633031335008e+00 8.7950321222891592e+00 1 1 -1
921 2 -6.0793844468069208e-02 5.3516610660619328e+00 1.1811353792399554e-01 1 0 3
999 2 2.6755538111529187e-01 4.6860553947561865e+00 6.2145142870802916e-01 1 2 1
727 1 1.0219446395298719e+00 5.3252889403724586e+00 1.6761454038051465e-01 -1 0 3
354 2 1.8132265155341738e+00 4.7835145707338320e+00 -3.9339501565574642e-02 2 3 3
41 1 1.8915767001978701e+00 5.4051254827183079e+00 8.5512230995367000e-01 2 0 -1
287 2 1.1149791016314037e+00 4.8170098909240302e+00 9.8893561756382242e-01 1 2 -1
249 1 2.9298663959105706e+00 5.4349733779214455e+00 5.4459914780610441e-01 -1 1 0
601 1 3.9840434908084610e-01 6.2012572856922583e+00 2.2608110054449387e-01 3 0 0
316 2 1.4010472078079672e+00 6.2544409442405007e+00 4.3621975356118992e-01 -1 2 4
118 1 2.3636043372753832e+00 6.3721656117607992e+00 6.6881734077261090e-01 -1 0 -3
814 2 2.9349206026269141e+00 6.2351762798670176e+00 -1.6346309830960251e-01 0 1 -1
239 2 -5.9038903518149721e-02 7.1079635697624184e+00 -1.9409019532322463e-02 1 -3 -2
742 1 9.4843753797928865e-01 7.1429917338395406e+00 -7.2104264858856570e-03 0 0 1
614 2 1.6701293732236278e+00 7.1653285497624122e+00 6.6272436580626837e-01 -2 -1 -1
18 1 2.6446401992913935e+00 7.3569287143490669e+00 4.1200188437185337e-01 0 -1 0
146 1 -6.8910014992970753e-02 8.2810051542692342e+00 6.6046899917425850e-01 -1 -1 0
594 1 1.0327182829351194e+00 7.9634211776500736e+00 7.4081767966697543e-01 1 0 0
173 1 1.8008169864572265e+00 7.8687370885756129e+00 -1.1267636035673494e-01 0 -2 1
959 2 2.0576187294421220e+00 8.0394316557086185e+00 9.0102991745177707e-01 1 0 -1
466 1 2.7225148463323130e+00 8.3926961194502709e+00 2.2199405513518189e-01 0 -2 0
821 1 6.2902927161117450e-01 9.0624536949738825e+00 7.4676786202738576e-01 3 0 0
786 1 -1.6735225783489024e-01 9.0201212536214612e+00 -1.6012998520491964e-01 2 -1 0
446 1 1.6094580481553249e+00 8.8480303994885361e+00 3.3559960097770880e-01 1 0 -1
220 2 2.4947389688721531e+00 9.3521940098225294e+00 3.1134028238472478e-01 1 1 5
712 1 6.0186941071688871e-01 5.0620067818730563e+00 1.8083678987041094e+00 1 2 0
471 1 1.7502461053861929e+00 4.7345718762384807e+00 1.7885312834510427e+00 1 -1 1
205 2 2.6291292308772740e+00 4.7953150872859984e+00 1.2487071397464113e+00 1 -1 2
252 1 2.7737268547248841e+00 4.6739500258595967e+00 2.2094182403821274e+00 1 -1 0
495 1 -1.0850087552877397e-01 5.5928402769624874e+00 1.1036864531902670e+00 -2 0 1
395 1 5.6788410833237857e-01 6.1990799485850268e+00 1.8918940971144935e+00 1 0 0
739 2 9.1643053632034954e-01 5.7652739099349883e+00 1.0483244902888424e+00 2 1 0
688 1 1.6136977496361282e+00 6.3878116491402652e+00 1.4439207054811334e+00 0 -3 -3
846 1 2.4520327869852321e+00 5.6451031792907127e+00 1.8470519210080005e+00 1 1 -1
644 1 7.3895766178547873e-01 6.8478512387806907e+00 1.0184138182703215e+00 2 1 -1
444 2 5.2461763916855830e-01 7.2221046390667345e+00 1.9173031068747002e+00 2 3 0
272 2 2.7319638289111503e+00 7.3508999644912745e+00 2.1227982084514982e+00 2 -1 1
341 2 2.2931885664267448e+00 7.2288217205692815e+00 1.3326023989055482e+00 2 0 2
43 2 -3.8873463856506363e-02 7.5220410502503521e+00 1.2732086328328822e+00 0 -1 2
137 1 5.5665499874961688e-01 8.3043767424572437e+00 1.6922327804039459e+00 0 -1 0
906 1 1.4107472196794379e+00 7.5399901054483092e+00 1.6139594433843898e+00 0 -1 0
621 2 2.1893446234462375e+00 8.0720601378492951e+00 1.7984358157763010e+00 0 -3 2
408 2 2.9374723130511526e+00 8.3403288178879436e+00 2.1774092681576405e+00 -2 2 0
913 2 2.1124994018864324e-01 9.3293171750188009e+00 1.7090323804372267e+00 -1 0 2
770 1 1.5124837530647415e+00 8.7210350096764948e+00 1.4420264773916163e+00 0 -1 0
393 1 2.6103966384305881e+00 8.8641701574624605e+00 1.3059442098447576e+00 1 2 1
591 1 6.8113528649973265e-01 4.9791473655478997e+00 2.9232541468772766e+00 -1 1 -2
125 2 1.5047896938440333e+00 5.5032181856165661e+00 3.3050145591423377e+00 1 2 0
275 2 2.0332402876899125e+00 4.9449028456076336e+00 2.8319885500971425e+00 3 2 1
278 2 1.3931286826812855e-02 5.6161636222159350e+00 2.4546771581866551e+00 1 -1 -1
534 1 7.1645207812913581e-01 6.0580224204900901e+00 3.0639848101433165e+00 0 1 0
636 1 1.4491356081414251e+00 5.6873059493809173e+00 2.3241840959362392e+00 0 0 0
176 2 1.6302977609142626e+00 6.4460477074363736e+00 3.3673247784256843e+00 -1 1 1
384 2 2.3212332140005523e+00 5.8954527789979307e+00 2.8914680802038135e+00 -1 -1 2
669 2 2.2545484534494287e-01 6.8312188975996122e+00 2.6801572768474218e+00 0 -2 1
117 1 1.2573036957443235e+00 6.8340575705839335e+00 2.4994573865981708e+00 0 0 0
463 2 2.1723751726012148e+00 6.5329960350504610e+00 2.2563562441815832e+00 1 -3 -1
484 1 2.5664627192160538e+00 6.9135921543949070e+00 3.1054816519717345e+00 1 2 0
711 1 6.2202104719650120e-01 7.7510040736584678e+00 2.7487894233372874e+00 0 -1 -1
697 2 1.3946342692856821e+00 8.2630657667831926e+00 2.3376825586208452e+00 2 -2 -1
342 1 2.2058461274280239e+00 7.9239257913553223e+00 2.7827636140009968e+00 2 0 2
841 1 4.5897831811672118e-02 8.7344423539916889e+00 2.6174161611645372e+00 0 0 -1
690 2 9.3492026814198459e-01 8.5845045401013955e+00 3.1602592766402853e+00 2 0 2
57 1 1.0215370622016606e+00 9.1876248723181071e+00 2.3516136557444227e+00 -1 -2 0
681 1 2.1371728436113204e+00 8.9459093647318326e+00 2.3627679861249447e+00 2 -1 -2
551 1 3.0032642362298141e+00 8.7267962870052287e+00 3.1687734899784323e+00 0 -1 1
16 1 1.2274662242279749e-01 5.4531491423185434e+00 4.2207462329932000e+00 2 0 1
765 2 1.7941193089413210e+00 5.3343028226689402e+00 4.5376362821502445e+00 -1 -1 1
803 1 1.0427747678319392e+00 4.8931165631752744e+00 3.9686400155423360e+00 1 1 0
105 2 2.7510166947473182e+00 5.1708360677566754e+00 3.4165959310037368e+00 -2 0 3
763 2 1.9929344452958269e+00 4.8300590751376786e+00 3.7392484679867897e+00 1 -1 -1
80 2 2.6666064532070863e+00 4.9286328414785574e+00 4.3865584003796352e+00 -1 0 7
530 2 2.7815258984671992e-01 6.4306815104087116e+00 3.8829902567956127e+00 0 -2 3
280 1 1.1231278496816843e+00 5.9766815364395152e+00 4.1283220641194847e+00 -1 -1 0
255 2 2.1640623912063126e+00 5.8172739161479488e+00 3.8323393890809703e+00 0 -3 1
63 2 8.0870704297286666e-01 7.0133004849609701e+00 3.4129154613367758e+00 -1 0 1
945 2 -7.8620395832511125e-02 7.1031160889507756e+00 4.3961291900576933e+00 0 1 1
156 2 -1.9000861968459226e-01 7.0787110497192920e+00 3.4906293037354152e+00 2 -3 1
151 1 9.6165148432577330e-01 7.1249142233922509e+00 4.4084849817883436e+00 0 1 0
997 2 1.8178595787917304e+00 6.6396649352679900e+00 4.2763564175232949e+00 0 -1 0
412 1 1.7359821324417026e+00 7.4648347317264268e+00 3.6743881405456835e+00 1 0 -1
403 2 2.5747465756503627e+00 7.0657267401625683e+00 4.0950904956335332e+00 1 1 1
438 2 3.6262675168393677e-01 7.7469823824861939e+00 3.7839802688181390e+00 3 1 1
423 2 1.4713455326051188e+00 8.2981597860001735e+00 4.3391605308070078e+00 1 -1 0
472 2 2.7546078229591142e+00 7.8130603110342678e+00 3.6133642156421319e+00 -1 -1 2
152 2 2.8762200253829433e+00 7.8148727079878357e+00 4.5149913979695651e+00 2 -1 -1
413 1 3.4586413254870413e-02 8.7234886722253080e+00 3.7225950437957254e+00 0 -1 -1
470 1 1.5043777392995816e+00 9.3137864272716513e+00 4.3883683804011193e+00 -1 0 -2
234 2 2.0316624953887659e+00 8.4567887206867773e+00 3.5909726504814921e+00 0 0 -1
231 2 2.4090728381369120e+00 9.2236482413781111e+00 3.9282445638102663e+00 -2 2 0
944 2 7.7407731411848202e-02 4.6254154872950615e+00 4.8429499343104938e+00 1 1 0
257 1 8.7357885351125897e-01 5.3555904176999221e+00 5.0064152851565549e+00 0 2 3
267 2 1.6307971467878668e+00 5.5378990334615317e+00 5.7330150840328038e+00 2 -2 0
762 2 2.2582487591674796e+00 5.0299249955131371e+00 5.2978053688066868e+00 1 -1 2
603 1 4.0257090181961763e-01 6.3723102586818641e+00 4.9290001305535913e+00 -1 -1 3
799 2 9.5974374302254373e-01 6.1411590468706896e+00 5.7740182947639287e+00 1 1 -1
236 1 1.9031349021746253e+00 6.4000290177800183e+00 5.2620963569302495e+00 2 0 -1
890 1 2.6925856546244864e+00 5.8213578285566978e+00 4.7858428404393267e+00 -2 1 -1
95 2 2.9549404305334409e-01 7.4400253689536022e+00 5.1594413724584518e+00 -1 -2 -2
590 1 1.1485917777279966e+00 7.0879029263979030e+00 5.5577004145807747e+00 -1 1 3
720 1 2.8312033555944409e+00 6.9663484438394070e+00 5.0791304238515824e+00 -1 -1 1
406 2 2.1957243265443136e+00 7.2638963153498999e+00 5.8012267386354859e+00 2 2 1
313 2 1.0762487043830824e+00 7.9478952909631877e+00 5.0887717475361516e+00 1 0 -1
903 2 1.8756438037132743e+00 8.1446383818660770e+00 5.6451058414450319e+00 0 -1 -3
165 1 1.9305916761718809e+00 7.5138470326237226e+00 4.8265316878678073e+00 0 -2 1
480 2 2.7420857231285152e+00 7.9445425190533294e+00 5.3921027056711885e+00 -2 0 2
563 1 9.4219954610038459e-02 8.6636085730261314e+00 5.5683450517995370e+00 1 -1 0
315 2 6.3674493487670691e-01 8.6697331029734883e+00 4.6220696237681249e+00 -2 -1 0
660 2 1.3816470067022142e+00 8.7930595902779061e+00 5.2051231357539303e+00 -1 0 0
702 1 2.3106657264914681e+00 8.6571682279137150e+00 4.8246884114051225e+00 -1 0 0
560 2 2.9406297649261885e+00 9.0969735653922861e+00 5.4923786018283867e+00 1 2 -1
750 1 7.0374207510632547e-01 5.2001589029974529e+00 6.0672064700477790e+00 3 1 1
292 1 1.5968156701655662e+00 5.3542895897205627e+00 6.7537154051039696e+00 1 -1 2
334 2 1.6420998498524957e+00 4.6660384039118910e+00 6.0038089406081196e+00 -1 -2 2
460 2 2.9261862396302468e-01 6.0620471645404974e+00 6.4254852147284662e+00 2 1 0
2 1 1.7582730207918609e+00 6.4294197630074104e+00 6.3496743688771007e+00 0 -2 -2
25 1 2.5219333669462292e+00 5.5631583989181266e+00 6.2312427394575636e+00 0 1 -1
100 2 2.6975286034917958e+00 6.5087154273775401e+00 5.9698726871761973e+00 0 -2 0
474 2 2.2370430654968648e-01 6.7555451502971415e+00 5.8394429969355270e+00 -3 -1 1
295 2 8.5445794815243858e-01 6.8058303755141862e+00 6.4702777385785932e+00 0 0 -1
862 2 2.4861403993522453e+00 7.0809431375601379e+00 6.6833786988405111e+00 -1 -2 -2
414 1 3.7727758194734795e-01 7.6859768384886324e+00 6.1801915580488203e+00 -2 -2 -1
617 2 1.0343742481891542e+00 8.3615248852401258e+00 5.9024376982506137e+00 -2 -1 1
456 1 1.5265671708042263e+00 7.5858738755639719e+00 6.4939890970778880e+00 2 1 1
922 1 2.5504953006725692e+00 8.0589657288682908e+00 6.4098132844444171e+00 1 0 1
699 2 4.3313263789983680e-01 8.4504378539473670e+00 6.8927680538920324e+00 -1 1 -2
59 2 -2.2066696269727237e-02 9.1282992502721356e+00 6.5197523427815129e+00 2 -2 0
847 2 1.1442659817600520e+00 9.2937746487391948e+00 5.9628148577287394e+00 1 1 0
134 1 1.6503593664589509e+00 8.6938109105695922e+00 6.5749867417974857e+00 -2 0 -2
528 1 2.5614485135263587e+00 9.2039588076200864e+00 6.3894428312243816e+00 -2 -2 -1
834 2 7.7685050220044161e-01 5.4922271369750506e+00 7.3309993349510201e+00 -3 0 -2
506 2 7.2733801797460551e-01 5.1014350511506059e+00 8.1498709329546646e+00 0 2 0
676 1 1.6822950415463096e+00 5.3907012796112941e+00 7.8817946698234032e+00 1 0 -1
52 2 1.1749751053476365e+00 4.6597606797056965e+00 7.3873931372900374e+00 1 3 1
145 1 2.5327141136979798e+00 5.0753495546078975e+00 7.2884112619742751e+00 2 1 0
204 2 -6.7610384060160955e-02 5.5769744852971330e+00 8.1881209890670839e+00 0 -1 0
965 2 5.3318693879980872e-01 6.3631149981304267e+00 7.2473401958524342e+00 3 2 -1
797 2 -9.7833579216205099e-02 5.6419464290272501e+00 7.1961322435958239e+00 3 2 0
721 1 8.8966566010283232e-01 6.0833492471720376e+00 8.1888568071672783e+00 0 -1 0
98 2 1.3924895539969901e+00 6.1397119239559830e+00 7.2995748268592671e+00 3 -1 2
119 1 1.9155379763735549e+00 6.5005143841405104e+00 8.1385369498436422e+00 -1 0 -2
53 1 2.3775948823145363e+00 6.1285335016650704e+00 7.2234763561945767e+00 2 -1 1
367 1 2.4159784474449741e-01 6.9727069639070587e+00 7.9655860735217665e+00 -1 0 -2
296 2 8.8760123545711345e-01 7.2637514137143171e+00 7.2772377593220279e+00 1 0 -1
243 2 1.7635435581043895e+00 6.9442062386332122e+00 7.2222350919250964e+00 3 0 -1
774 2 2.6714644921826594e+00 7.0258886251464485e+00 7.5984938648099529e+00 -3 0 0
826 2 5.6762113771627221e-01 7.9035075710172853e+00 7.9186078173352126e+00 1 3 2
219 1 -7.4908265552935921e-02 7.6175850498501836e+00 7.1578905251746932e+00 0 0 2
724 2 1.2004975809606551e+00 8.1312449630986308e+00 7.3115697083796718e+00 2 -1 0
380 2 2.8951898742148754e+00 7.9459712029886047e+00 7.6802422397074350e+00 -1 0 -1
894 2 2.1045484969135675e+00 7.7636804422936141e+00 7.3128235688737790e+00 1 -1 0
722 2 2.0795410151307436e+00 8.2498263063251009e+00 8.0996278163810356e+00 0 0 -1
738 2 5.9706041306045510e-01 8.8087911127831369e+00 7.7410316830261019e+00 -1 -1 0
935 1 1.5766928839236409e+00 8.9999064917727551e+00 7.6454644347085452e+00 -1 0 -1
606 2 2.4439652172650370e+00 8.6505062262049748e+00 7.2723852070544872e+00 -1 2 -2
667 1 2.9373526797774914e+00 8.8476737542229316e+00 8.1340744594772705e+00 1 0 -1
297 2 6.6861339214975934e-01 4.6825164876618484e+00 8.9809958130474499e+00 1 -2 3
961 2 -1.7868601780816229e-01 4.9502285565189217e+00 8.8688724975893116e+00 -1 1 1
75 2 1.3497732526808646e+00 5.2907283226747790e+00 8.8043128305710887e+00 2 -2 -3
902 2 2.2197628703838594e+00 4.8960334255908888e+00 8.7228001081217172e+00 1 -1 -3
778 2 4.5511012905251114e-01 5.5989057023381763e+00 8.9425485659931852e+00 3 0 -2
353 2 1.1785391160146041e+00 6.1878732509771988e+00 9.1428339296764563e+00 2 -1 -1
129 1 2.6307743013954052e+00 5.6888075389241948e+00 8.2714148523387507e+00 2 0 -2
169 1 2.1000013058607148e+00 5.7024603588613685e+00 9.3527275350978716e+00 -1 -1 0
725 2 3.5352785216092664e-01 6.5722507193329367e+00 8.8873861941964805e+00 0 -2 -3
304 2 1.1476033102993477e+00 6.9759036134446726e+00 8.5917989370824852e+00 0 -1 -1
926 1 1.9745438520412599e+00 6.7737137723077643e+00 9.2967134805635627e+00 1 0 -2
544 1 2.8720614719778870e+00 6.8096087435864670e+00 8.5895908040069937e+00 1 -2 -1
808 2 2.0356672012041876e+00 7.4219839378075614e+00 8.5332136366255860e+00 -1 3 0
88 2 3.8471810776284787e-01 7.5224475036283183e+00 8.7899311593276739e+00 1 1 1
147 1 7.0290824542973562e-01 8.3045707069396180e+00 9.3810333332846536e+00 -2 1 -1
605 2 1.2657642843202321e+00 7.8928088841384101e+00 8.5400178128216417e+00 0 0 0
804 2 2.6537915478437202e+00 8.0755998687173189e+00 8.8122175095091873e+00 2 -1 1
567 2 2.2596807250496881e-01 8.4616983472484719e+00 8.5667842648419210e+00 1 2 1
102 2 1.1127083312358046e+00 8.7758698718729704e+00 8.5382233354112831e+00 0 -1 -1
882 1 2.1090314470144520e+00 8.9194038419796620e+00 8.9427820569321472e+00 1 -2 -1
8 1 3.8939032937006646e+00 3.4170989494935000e-01 3.9169754983198468e-02 -1 -1 0
79 2 4.5034376645955447e+00 4.6030003640524764e-01 8.9653261962455399e-01 -2 3 0
524 1 5.4333559499782949e+00 1.5834485461524961e-01 5.0567526152854470e-01 -2 2 1
383 2 3.8085972252598017e+00 1.0976899198996826e+00 6.5935898259382553e-01 0 1 4
264 1 4.7514464841370412e+00 1.0282025896595972e+00 1.0176616319594584e-01 -1 -2 0
646 2 6.0157327297066612e+00 9.6565343302288453e-01 3.3508619556379948e-01 1 1 -2
879 2 3.5646364321271404e+00 1.9601204664492773e+00 3.7451893691741678e-01 2 1 -2
333 1 4.4895152362966710e+00 1.8644765686480591e+00 7.6223303097410378e-01 0 3 1
265 2 4.7467062976902854e+00 2.3239076843303277e+00 -1.2290338411680635e-01 0 -3 0
531 2 5.4637337879473504e+00 1.7724388175524235e+00 2.6081292400910860e-01 1 -2 0
585 1 6.1078809687137756e+00 2.5948084605428527e+00 3.6526614941451818e-01 -2 0 2
183 1 3.1972892305295750e+00 2.9101250780697852e+00 7.8913193575886798e-01 -1 0 2
199 1 3.5556350418577702e+00 3.6355337371423975e+00 -1.0942542517529880e-02 0 -2 1
694 1 5.0781212050912261e+00 3.1134441438904354e+00 3.8145929423454850e-01 0 0 0
764 1 6.0033360356071510e+00 3.5893747284536173e+00 8.1591313675937271e-01 1 0 0
888 2 3.9547666873283180e+00 4.1569885468125971e+00 7.3864617932534171e-01 0 -1 0
196 2 3.0257667362444987e+00 3.9851230685340582e+00 8.8413584563711400e-01 4 0 2
790 1 4.8764729888154150e+00 4.6052997132333369e+00 6.7687337151611737e-01 0 0 3
656 2 4.4949808823084210e+00 3.9180421426456800e+00 1.6498329343571372e-02 0 0 -2
107 2 5.4251052383968430e+00 3.9817645564576720e+00 1.1437759698453870e-02 1 -2 0
371 2 5.9215172281375095e+00 4.5211914166184659e+00 5.2701733631375758e-01 -1 1 -1
527 1 3.6951536423046618e+00 3.0826913820102925e-01 1.4191886995184091e+00 0 -2 0
218 2 5.2404124191015926e+00 2.7674576625496700e-01 1.4894049513429841e+00 -2 0 2
914 1 6.1652280296606623e+00 5.6791826874154583e-01 1.2546225143560994e+00 -3 0 1