LAMMPS (24 Mar 2022)
package gpu 0
package gpu 6
# 3d Lennard-Jones melt

units		lj
atom_style	atomic


read_data	tobemelted.initial.readdata
Reading data file ...
  orthogonal box = (-0.19761599 -0.15873531 -0.17851477) to (9.413447 9.3745663 9.3943458)
  3 by 1 by 2 MPI processor grid
  reading atoms ...
  1000 atoms
  reading velocities ...
  1000 velocities
  read_data CPU = 0.039 seconds

replicate	2 2 6
Replicating atoms ...
  orthogonal box = (-0.19761599 -0.15873531 -0.17851477) to (19.02451 18.907868 57.258649)
  2 by 1 by 3 MPI processor grid
  24000 atoms
  replicate CPU = 0.002 seconds

mass		1 2.0
mass		2 1.0

velocity	all create 1.2 87287

variable	a equal 1.5
variable	b equal 0.35
variable	t equal 1.2
variable	w equal 0.016
variable	p equal 2.0
variable	l equal 30.602501*2/3.0
variable	z equal $l*3
variable	z equal 20.4016673333333*3


variable        bump equal 1.1
#Bump, relative_start relative_end, relative_energy, 4.9s
pair_style      lj/cut/bump 1.4
pair_coeff      1 1 1.0 1.0 1.2 1.0 ${bump} 1.4
pair_coeff      1 1 1.0 1.0 1.2 1.0 1.1 1.4
pair_coeff      1 2 1.0 0.9166666666667 1.2 1.0 ${bump} 1.2833333333
pair_coeff      1 2 1.0 0.9166666666667 1.2 1.0 1.1 1.2833333333
pair_coeff      2 2 1.0 0.8333333333333 1.2 1.0 ${bump} 1.1666666667
pair_coeff      2 2 1.0 0.8333333333333 1.2 1.0 1.1 1.1666666667

pair_modify	shift yes tail no

neighbor	0.5 bin
neigh_modify	every 10 delay 0 check no

timestep	0.005

thermo		100
thermo_style    custom step temp pe etotal temp vol press pxx pyy pzz pxz lx ly lz enthalpy

reset_timestep	0

dump            3 all xyz 10000 latadump.xyz
dump            4 all custom 100000 lata4olivia id type x y z vx vy vz fx fy fz

fix		1 all nvt temp $t $w 1.0
fix		1 all nvt temp 1.2 $w 1.0
fix		1 all nvt temp 1.2 0.016 1.0
run		1000000

CITE-CITE-CITE-CITE-CITE-CITE-CITE-CITE-CITE-CITE-CITE-CITE-CITE

Your simulation uses code contributions which should be cited:

- GPU package (short-range, long-range and three-body potentials):

@Article{Brown11,
 author = {W. M. Brown, P. Wang, S. J. Plimpton, A. N. Tharrington},
 title = {Implementing Molecular Dynamics on Hybrid High Performance Computers - Short Range Forces},
 journal = {Comp.~Phys.~Comm.},
 year =    2011,
 volume =  182,
 pages =   {898--911}
}

@Article{Brown12,
 author = {W. M. Brown, A. Kohlmeyer, S. J. Plimpton, A. N. Tharrington},
 title = {Implementing Molecular Dynamics on Hybrid High Performance Computers - Particle-Particle Particle-Mesh},
 journal = {Comp.~Phys.~Comm.},
 year =    2012,
 volume =  183,
 pages =   {449--459}
}

@Article{Brown13,
 author = {W. M. Brown, Y. Masako},
 title = {Implementing Molecular Dynamics on Hybrid High Performance Computers – Three-Body Potentials},
 journal = {Comp.~Phys.~Comm.},
 year =    2013,
 volume =  184,
 pages =   {2785--2793}
}

@Article{Trung15,
 author = {T. D. Nguyen, S. J. Plimpton},
 title = {Accelerating dissipative particle dynamics simulations for soft matter systems},
 journal = {Comput.~Mater.~Sci.},
 year =    2015,
 volume =  100,
 pages =   {173--180}
}

@Article{Trung17,
 author = {T. D. Nguyen},
 title = {GPU-accelerated Tersoff potentials for massively parallel Molecular Dynamics simulations},
 journal = {Comp.~Phys.~Comm.},
 year =    2017,
 volume =  212,
 pages =   {113--122}
}

@Article{Nikolskiy19,
 author = {V. Nikolskiy, V. Stegailov},
 title = {GPU acceleration of four-site water models in LAMMPS},
 journal = {Proceeding of the International Conference on Parallel Computing (ParCo 2019), Prague, Czech Republic},
 year =    2019
}

CITE-CITE-CITE-CITE-CITE-CITE-CITE-CITE-CITE-CITE-CITE-CITE-CITE

  generated 0 of 1 mixed pair_coeff terms from geometric mixing rule
Per MPI rank memory allocation (min/avg/max) = 5.281 | 5.281 | 5.281 Mbytes
   Step          Temp          PotEng         TotEng          Temp          Volume         Press           Pxx            Pyy            Pzz            Pxz             Lx             Ly             Lz          Enthalpy   
         0   1.2           -2.5836417     -0.78371673     1.2            21050.758      1.3773758      1.3685501      1.3750998      1.3884775     -0.027247187    19.222126      19.066603      57.437163      0.4244001    
       100   0.61698286    -1.6685894     -0.74315366     0.61698286     21050.758      2.5035139      2.4927423      2.4388813      2.5789181     -0.014006086    19.222126      19.066603      57.437163      1.4527157    
       200   0.62464217    -1.6178611     -0.68093692     0.62464217     21050.758      2.9437767      2.9278312      2.9671172      2.9363818     -0.061786434    19.222126      19.066603      57.437163      1.9010935    
       300   0.63930514    -1.5681874     -0.60926965     0.63930514     21050.758      3.3679693      3.3557031      3.3483967      3.3998079     -0.094864697    19.222126      19.066603      57.437163      2.3448264    
       400   0.66122121    -1.5223711     -0.53058059     0.66122121     21050.758      3.7527869      3.7962073      3.677948       3.7842054     -0.024980235    19.222126      19.066603      57.437163      2.7610447    
       500   0.67971458    -1.4655767     -0.4460473      0.67971458     21050.758      3.9471649      4.0579329      3.8693734      3.9141885     -0.018199059    19.222126      19.066603      57.437163      3.0160699    
       600   0.70052426    -1.4071855     -0.35644287     0.70052426     21050.758      4.4791489      4.5372568      4.4275429      4.4726471     -0.0097126615   19.222126      19.066603      57.437163      3.5722854    
       700   0.72798701    -1.3541504     -0.26221542     0.72798701     21050.758      4.793088       4.7878514      4.7410717      4.8503408     -0.016368872    19.222126      19.066603      57.437163      3.9418735    
       800   0.75366536    -1.2940186     -0.16356764     0.75366536     21050.758      5.0503127      5.1312553      4.9990312      5.0206515      0.094809997    19.222126      19.066603      57.437163      4.2661369    
       900   0.78081415    -1.2326423     -0.061469864    0.78081415     21050.758      5.5303672      5.537746       5.5298532      5.5235023      0.032932057    19.222126      19.066603      57.437163      4.7892976    
      1000   0.80936017    -1.170156       0.043833699    0.80936017     21050.758      5.9696006      5.9790963      5.9413095      5.9883959     -0.070575939    19.222126      19.066603      57.437163      5.2798593    
      1100   0.84075608    -1.1089283      0.15215327     0.84075608     21050.758      6.3233463      6.3316075      6.3819295      6.2565018     -0.039152371    19.222126      19.066603      57.437163      5.6984545    
      1200   0.87314912    -1.0469317      0.26273742     0.87314912     21050.758      6.7211582      6.7716057      6.7631606      6.6287083      0.098865557    19.222126      19.066603      57.437163      6.1579654    
      1300   0.90419036    -0.98119945     0.37502958     0.90419036     21050.758      7.0436154      7.058713       6.9932452      7.0788881      0.062617972    19.222126      19.066603      57.437163      6.5530896    
      1400   0.93460184    -0.91355041     0.48829393     0.93460184     21050.758      7.4766342      7.5648694      7.3979863      7.467047       0.017560142    19.222126      19.066603      57.437163      7.0461612    
      1500   0.97076667    -0.85446988     0.60161946     0.97076667     21050.758      7.8166569      7.8794655      7.8665468      7.7039585      0.038619213    19.222126      19.066603      57.437163      7.4577257    
      1600   1.0005709     -0.78640429     0.71438956     1.0005709      21050.758      8.3624644      8.3547648      8.3610536      8.3715748      0.0065635304   19.222126      19.066603      57.437163      8.0492317    
      1700   1.0382214     -0.73219988     0.82506731     1.0382214      21050.758      8.7462378      8.7654872      8.6511282      8.822098       0.032286852    19.222126      19.066603      57.437163      8.4965228    
      1800   1.0757196     -0.68086922     0.93264299     1.0757196      21050.758      9.1537352      9.2108146      9.1006376      9.1497535     -0.063190897    19.222126      19.066603      57.437163      8.9615206    
      1900   1.1061749     -0.6238644      1.0353287      1.1061749      21050.758      9.4205689      9.5060116      9.4446156      9.3110795     -0.023105729    19.222126      19.066603      57.437163      9.2982501    
      2000   1.1367967     -0.57421027     1.1309137      1.1367967      21050.758      9.7633379      9.887252       9.626459       9.7763026     -0.10524688     19.222126      19.066603      57.437163      9.6944829    
      2100   1.1627202     -0.52668585     1.2173218      1.1627202      21050.758      10.030863      10.075545      9.9949356      10.022107     -0.077653493    19.222126      19.066603      57.437163      10.015541    
      2200   1.1873989     -0.48853522     1.292489       1.1873989      21050.758      10.227302      10.152564      10.319707      10.209634     -0.093686521    19.222126      19.066603      57.437163      10.263008    
      2300   1.2113531     -0.46456697     1.3523869      1.2113531      21050.758      10.383184      10.275468      10.487456      10.386628     -0.13984215     19.222126      19.066603      57.437163      10.459632    
      2400   1.2250718     -0.44501798     1.3925132      1.2250718      21050.758      10.568138      10.533862      10.560399      10.610154      0.027270972    19.222126      19.066603      57.437163      10.661985    
      2500   1.2305976     -0.43703695     1.4087825      1.2305976      21050.758      10.627212      10.631898      10.509501      10.740238     -0.0061823274   19.222126      19.066603      57.437163      10.730068    
      2600   1.2225506     -0.43568571     1.3980638      1.2225506      21050.758      10.592364      10.66226       10.752055      10.362777     -0.0029839234   19.222126      19.066603      57.437163      10.688784    
      2700   1.2145899     -0.45678473     1.3650242      1.2145899      21050.758      10.447649      10.455029      10.482471      10.405447     -0.040151196    19.222126      19.066603      57.437163      10.528813    
      2800   1.1966282     -0.47279603     1.3220715      1.1966282      21050.758      10.399178      10.237534      10.490912      10.469088      0.014277004    19.222126      19.066603      57.437163      10.443346    
      2900   1.195084      -0.51153438     1.2810169      1.195084       21050.758      10.12324       10.096007      10.193695      10.080018      0.026233813    19.222126      19.066603      57.437163      10.160262    
      3000   1.1765167     -0.51419068     1.2505108      1.1765167      21050.758      10.212068      10.218768      10.231888      10.185547     -0.025624617    19.222126      19.066603      57.437163      10.207668    
      3100   1.1768765     -0.52891406     1.2363272      1.1768765      21050.758      10.01481       10.130176      10.007491      9.9067621      0.011769077    19.222126      19.066603      57.437163      10.020466    
      3200   1.1733701     -0.51982614     1.2401556      1.1733701      21050.758      10.023409      9.9865332      9.9989897      10.084704      0.04765446     19.222126      19.066603      57.437163      10.031837    
      3300   1.1726474     -0.4979181      1.2609798      1.1726474      21050.758      10.256844      10.268392      10.384045      10.118095      0.053837554    19.222126      19.066603      57.437163      10.25741     
      3400   1.1911988     -0.49252035     1.2942033      1.1911988      21050.758      10.215996      10.313284      10.106438      10.228265      0.01827586     19.222126      19.066603      57.437163      10.254805    
      3500   1.1991562     -0.46932001     1.3293394      1.1991562      21050.758      10.507722      10.470486      10.557402      10.495277     -0.10202506     19.222126      19.066603      57.437163      10.545819    
      3600   1.2069375     -0.45352115     1.3568097      1.2069375      21050.758      10.562658      10.52761       10.522528      10.637835      0.055625327    19.222126      19.066603      57.437163      10.621474    
      3700   1.2116689     -0.44708124     1.3703463      1.2116689      21050.758      10.532476      10.621963      10.420221      10.555243      0.02821906     19.222126      19.066603      57.437163      10.608538    
      3800   1.2191946     -0.46075394     1.3679617      1.2191946      21050.758      10.552667      10.56889       10.528723      10.560387     -0.051012838    19.222126      19.066603      57.437163      10.623863    
      3900   1.2000809     -0.44886351     1.3511828      1.2000809      21050.758      10.549621      10.622194      10.637125      10.389543     -0.017072579    19.222126      19.066603      57.437163      10.604412    
      4000   1.2032441     -0.47815463     1.3266364      1.2032441      21050.758      10.334802      10.303663      10.274757      10.425987      0.11854489     19.222126      19.066603      57.437163      10.391445    
      4100   1.1969964     -0.49608644     1.2993334      1.1969964      21050.758      10.355686      10.278618      10.350258      10.438181      0.037354932    19.222126      19.066603      57.437163      10.38246     
      4200   1.1882354     -0.50811049     1.2741683      1.1882354      21050.758      10.234177      10.208604      10.253725      10.240202     -0.10736277     19.222126      19.066603      57.437163      10.250718    
      4300   1.1810271     -0.51294467     1.2585222      1.1810271      21050.758      10.205413      10.26259       10.151265      10.202386     -0.073415536    19.222126      19.066603      57.437163      10.209842    
      4400   1.1855202     -0.52298856     1.2552177      1.1855202      21050.758      10.145458      10.00544       10.167392      10.263543      0.038645383    19.222126      19.066603      57.437163      10.15395     
      4500   1.1835824     -0.51177668     1.263523       1.1835824      21050.758      10.213149      10.227638      10.187586      10.224224     -0.07500439     19.222126      19.066603      57.437163      10.221628    
      4600   1.1869471     -0.49849012     1.2818564      1.1869471      21050.758      10.289819      10.263027      10.369965      10.236464      0.021743765    19.222126      19.066603      57.437163      10.30721     
      4700   1.1939076     -0.48673662     1.3040501      1.1939076      21050.758      10.223139      10.142837      10.243003      10.283577     -0.00071633684  19.222126      19.066603      57.437163      10.270918    
      4800   1.2054111     -0.48214164     1.3258997      1.2054111      21050.758      10.456476      10.418805      10.563916      10.386707      0.039404148    19.222126      19.066603      57.437163      10.497431    
      4900   1.1987321     -0.45604258     1.3419807      1.1987321      21050.758      10.451423      10.454461      10.390565      10.509244      0.11228161     19.222126      19.066603      57.437163      10.50908     
      5000   1.2066251     -0.46317609     1.3466861      1.2066251      21050.758      10.504259      10.525017      10.579566      10.408195     -0.048745469    19.222126      19.066603      57.437163      10.560128    
      5100   1.2058064     -0.46949163     1.3391426      1.2058064      21050.758      10.540903      10.464677      10.600788      10.557245      0.090088357    19.222126      19.066603      57.437163      10.584726    
      5200   1.1998547     -0.47723581     1.3224712      1.1998547      21050.758      10.415839      10.290353      10.389854      10.567309      0.022545763    19.222126      19.066603      57.437163      10.458359    
      5300   1.1940291     -0.48884245     1.3021266      1.1940291      21050.758      10.400359      10.26838       10.430938      10.50176      -0.083181728    19.222126      19.066603      57.437163      10.424437    
      5400   1.1822267     -0.4899908      1.2832754      1.1822267      21050.758      10.213828      10.232651      10.133071      10.275762     -0.026431593    19.222126      19.066603      57.437163      10.241976    
      5500   1.1805327     -0.50071224     1.2700131      1.1805327      21050.758      10.080777      10.075926      10.120049      10.046355     -0.062568973    19.222126      19.066603      57.437163      10.112013    
      5600   1.1840796     -0.51257977     1.2634657      1.1840796      21050.758      10.158995      10.131624      10.087151      10.258211     -0.03285747     19.222126      19.066603      57.437163      10.174072    
      5700   1.1759377     -0.49780493     1.2660281      1.1759377      21050.758      10.194616      10.324918      10.209712      10.04922      -0.10625096     19.222126      19.066603      57.437163      10.207878    
      5800   1.1818715     -0.49446057     1.2782729      1.1818715      21050.758      10.204032      10.189683      10.222487      10.199927     -0.037166325    19.222126      19.066603      57.437163      10.228382    
      5900   1.1906201     -0.49070442     1.2951513      1.1906201      21050.758      10.273886      10.269076      10.329331      10.223249     -0.045197776    19.222126      19.066603      57.437163      10.306529    
      6000   1.1953787     -0.4808467      1.3121466      1.1953787      21050.758      10.347847      10.321522      10.305574      10.416446      0.07557184     19.222126      19.066603      57.437163      10.388398    
      6100   1.1993111     -0.47387123     1.3250205      1.1993111      21050.758      10.456101      10.392086      10.398283      10.577935     -0.042233967    19.222126      19.066603      57.437163      10.496223    
      6200   1.2050967     -0.4752069      1.3323628      1.2050967      21050.758      10.349369      10.337689      10.407585      10.302833     -0.035980706    19.222126      19.066603      57.437163      10.409949    
      6300   1.2024355     -0.47113796     1.3324402      1.2024355      21050.758      10.422585      10.444625      10.333165      10.489966     -0.064171332    19.222126      19.066603      57.437163      10.474245    
      6400   1.2013536     -0.47693612     1.3250193      1.2013536      21050.758      10.348829      10.287635      10.385152      10.373699     -0.0097965737   19.222126      19.066603      57.437163      10.402131    
      6500   1.2081011     -0.50143326     1.3106429      1.2081011      21050.758      10.289628      10.346124      10.236718      10.286042      0.16459018     19.222126      19.066603      57.437163      10.335829    
      6600   1.1886979     -0.49026958     1.292703       1.1886979      21050.758      10.304833      10.200752      10.261927      10.451822      0.065173771    19.222126      19.066603      57.437163      10.331226    
      6700   1.1903752     -0.50788307     1.2776053      1.1903752      21050.758      10.278981      10.228723      10.309843      10.298377     -0.0182798      19.222126      19.066603      57.437163      10.293453    
      6800   1.1788702     -0.50020808     1.2680235      1.1788702      21050.758      10.221302      10.271189      10.092244      10.300473      0.064764301    19.222126      19.066603      57.437163      10.23328     
      6900   1.1794431     -0.50362101     1.26547        1.1794431      21050.758      10.165604      10.083822      10.193934      10.219055      0.091744153    19.222126      19.066603      57.437163      10.181873    
      7000   1.1777478     -0.49493231     1.2716158      1.1777478      21050.758      10.352269      10.319315      10.433535      10.303957      0.017663241    19.222126      19.066603      57.437163      10.351745    
      7100   1.1972637     -0.50998876     1.285832       1.1972637      21050.758      10.227047      10.245186      10.131533      10.304423      0.0079543634   19.222126      19.066603      57.437163      10.256128    
      7200   1.190717      -0.4826317      1.3033694      1.190717       21050.758      10.356118      10.382217      10.447732      10.238405      0.011417187    19.222126      19.066603      57.437163      10.386875    
      7300   1.2048561     -0.48741066     1.3197981      1.2048561      21050.758      10.347484      10.320551      10.442848      10.279053     -0.010434791    19.222126      19.066603      57.437163      10.39573     
      7400   1.2089936     -0.48337506     1.3300398      1.2089936      21050.758      10.401048      10.436985      10.367715      10.398444     -0.039448542    19.222126      19.066603      57.437163      10.452954    
      7500   1.2084293     -0.4826387      1.3299297      1.2084293      21050.758      10.385148      10.414935      10.366908      10.3736        0.030753341    19.222126      19.066603      57.437163      10.438897    
      7600   1.1986257     -0.47952363     1.3183399      1.1986257      21050.758      10.3469        10.29706       10.415707      10.327934     -0.0074881845   19.222126      19.066603      57.437163      10.39376     
      7700   1.1941712     -0.49028464     1.3008975      1.1941712      21050.758      10.339343      10.262605      10.431823      10.323602      0.0075232443   19.222126      19.066603      57.437163      10.36969     
      7800   1.1839716     -0.49377985     1.2821036      1.1839716      21050.758      10.306555      10.327586      10.321829      10.270251      0.10718389     19.222126      19.066603      57.437163      10.322137    
      7900   1.1771403     -0.49899723     1.2666397      1.1771403      21050.758      10.199095      10.320943      10.111441      10.1649       -0.015079661    19.222126      19.066603      57.437163      10.212418    
      8000   1.1675196     -0.49236342     1.258843       1.1675196      21050.758      10.351354      10.369934      10.360448      10.32368       0.047796129    19.222126      19.066603      57.437163      10.33817     
      8100   1.1818972     -0.51119888     1.261573       1.1818972      21050.758      10.187686      10.381443      10.028137      10.15348      -0.016156704    19.222126      19.066603      57.437163      10.197345    
      8200   1.1826333     -0.50031503     1.273561       1.1826333      21050.758      10.249149      10.240216      10.199882      10.30735       0.00036708979  19.222126      19.066603      57.437163      10.263242    
      8300   1.1956176     -0.50199931     1.2913523      1.1956176      21050.758      10.356314      10.313107      10.364315      10.391519      0.022285181    19.222126      19.066603      57.437163      10.37503     
      8400   1.1911976     -0.47712291     1.3095991      1.1911976      21050.758      10.3724        10.369446      10.35122       10.396535      0.054951713    19.222126      19.066603      57.437163      10.407386    
      8500   1.2043546     -0.48257964     1.323877       1.2043546      21050.758      10.314241      10.391419      10.30501       10.246293     -0.086616365    19.222126      19.066603      57.437163      10.370651    
      8600   1.20188       -0.47334632     1.3293985      1.20188        21050.758      10.417091      10.427964      10.383818      10.43949       0.0054269503   19.222126      19.066603      57.437163      10.466384    
      8700   1.2039075     -0.48091916     1.3248668      1.2039075      21050.758      10.356942      10.31033       10.247068      10.513427     -0.022339442    19.222126      19.066603      57.437163      10.409095    
      8800   1.1977616     -0.4853071      1.3112604      1.1977616      21050.758      10.259394      10.386498      10.110326      10.281359      0.062561084    19.222126      19.066603      57.437163      10.309928    
      8900   1.1952804     -0.49926917     1.2935767      1.1952804      21050.758      10.228043      10.166338      10.272795      10.244997      0.082062344    19.222126      19.066603      57.437163      10.264746    
      9000   1.191242      -0.5124424      1.2743461      1.191242       21050.758      10.202441      10.149147      10.206065      10.252111      0.05858004     19.222126      19.066603      57.437163      10.223059    
      9100   1.1755387     -0.50332977     1.2599049      1.1755387      21050.758      10.272411      10.465183      10.214748      10.137302     -0.067374988    19.222126      19.066603      57.437163      10.26999     
      9200   1.1800293     -0.51541901     1.2545512      1.1800293      21050.758      10.128785      10.070939      10.169345      10.146071      0.063881047    19.222126      19.066603      57.437163      10.138659    
      9300   1.177391      -0.50802363     1.2579893      1.177391       21050.758      10.236807      10.227849      10.273836      10.208735     -0.068438098    19.222126      19.066603      57.437163      10.236845    
      9400   1.1868596     -0.51134364     1.2688716      1.1868596      21050.758      10.150772      10.174759      10.132656      10.144901     -0.0081248004   19.222126      19.066603      57.437163      10.172265    
      9500   1.1872179     -0.49588841     1.2848643      1.1872179      21050.758      10.234073      10.195079      10.170567      10.336572     -0.010981083    19.222126      19.066603      57.437163      10.261322    
      9600   1.1964097     -0.49275658     1.3017833      1.1964097      21050.758      10.295153      10.235451      10.369384      10.280624     -0.021590195    19.222126      19.066603      57.437163      10.331816    
      9700   1.207046      -0.49455748     1.3159361      1.207046       21050.758      10.332411      10.351683      10.357824      10.287726     -0.048486306    19.222126      19.066603      57.437163      10.378648    
      9800   1.1953275     -0.47061353     1.322303       1.1953275      21050.758      10.431567      10.531787      10.353107      10.409808      0.018046425    19.222126      19.066603      57.437163      10.471986    
      9900   1.1934575     -0.47056348     1.3195481      1.1934575      21050.758      10.414933      10.592001      10.246564      10.406233      0.014699291    19.222126      19.066603      57.437163      10.454641    
     10000   1.1938455     -0.48096389     1.3097297      1.1938455      21050.758      10.346336      10.384539      10.373073      10.281396     -0.04996997     19.222126      19.066603      57.437163      10.384655    
     10100   1.1892975     -0.48831167     1.2955603      1.1892975      21050.758      10.406228      10.509852      10.385185      10.323649      0.053965495    19.222126      19.066603      57.437163      10.423018    
     10200   1.1900768     -0.50562997     1.2794108      1.1900768      21050.758      10.240692      10.367808      10.224684      10.129584      0.01706321     19.222126      19.066603      57.437163      10.261674    
     10300   1.1760579     -0.49982433     1.2641891      1.1760579      21050.758      10.172795      10.186207      10.019317      10.31286       0.046357238    19.222126      19.066603      57.437163      10.186899    
     10400   1.1780298     -0.51205711     1.254914       1.1780298      21050.758      10.230563      10.319428      10.157259      10.215001     -0.071908352    19.222126      19.066603      57.437163      10.228293    
     10500   1.174207      -0.50714236     1.2540948      1.174207       21050.758      10.223679      10.216106      10.151907      10.303025      0.038195492    19.222126      19.066603      57.437163      10.221436    
     10600   1.1826247     -0.51233872     1.2615245      1.1826247      21050.758      10.134779      9.9688267      10.146364      10.289145     -0.0073234689   19.222126      19.066603      57.437163      10.15089     
     10700   1.1862589     -0.50404215     1.2752721      1.1862589      21050.758      10.210155      10.225258      10.222366      10.18284       0.041371623    19.222126      19.066603      57.437163      10.230751    
     10800   1.1927899     -0.49726455     1.2918457      1.1927899      21050.758      10.233143      10.224501      10.179068      10.29586      -0.0020036961   19.222126      19.066603      57.437163      10.267488    
     10900   1.1944635     -0.48571389     1.3059067      1.1944635      21050.758      10.366741      10.384868      10.322581      10.392772     -0.065120534    19.222126      19.066603      57.437163      10.398729    
     11000   1.1965508     -0.48102952     1.3137219      1.1965508      21050.758      10.303164      10.259386      10.283255      10.366851      0.10397963     19.222126      19.066603      57.437163      10.35078     
     11100   1.2006741     -0.48717913     1.3137569      1.2006741      21050.758      10.358955      10.28583       10.457617      10.333418     -0.058190141    19.222126      19.066603      57.437163      10.399751    
     11200   1.1929072     -0.48426286     1.3050234      1.1929072      21050.758      10.314171      10.296979      10.394541      10.250992      0.013855817    19.222126      19.066603      57.437163      10.351736    
     11300   1.1882106     -0.49206934     1.2901723      1.1882106      21050.758      10.277577      10.376284      10.306854      10.149594     -0.064450708    19.222126      19.066603      57.437163      10.304788    
     11400   1.1864041     -0.50598453     1.2735475      1.1864041      21050.758      10.233197      10.122137      10.255131      10.322323     -0.037261933    19.222126      19.066603      57.437163      10.249237    
     11500   1.1833628     -0.51515212     1.2598181      1.1833628      21050.758      10.185215      10.213526      10.19044       10.151679     -0.068848282    19.222126      19.066603      57.437163      10.193422    
     11600   1.1769995     -0.51213249     1.2532932      1.1769995      21050.758      10.173899      10.169495      10.113362      10.23884      -0.020140082    19.222126      19.066603      57.437163      10.176972    
     11700   1.1857821     -0.52317342     1.2554256      1.1857821      21050.758      10.138626      10.037707      10.190959      10.187212      0.032005332    19.222126      19.066603      57.437163      10.148165    
     11800   1.1818357     -0.50890253     1.2637771      1.1818357      21050.758      10.138282      10.038095      10.129088      10.247662      0.074669584    19.222126      19.066603      57.437163      10.156215    
     11900   1.1856581     -0.50171051     1.2767025      1.1856581      21050.758      10.297735      10.161334      10.338267      10.393605      0.11936479     19.222126      19.066603      57.437163      10.309       
     12000   1.1936414     -0.4988431      1.2915444      1.1936414      21050.758      10.218268      10.34942       10.220195      10.085187      0.124185       19.222126      19.066603      57.437163      10.254139    
     12100   1.1937359     -0.48704377     1.3034855      1.1937359      21050.758      10.377146      10.321581      10.3255        10.484357     -0.029664344    19.222126      19.066603      57.437163      10.405435    
     12200   1.185852      -0.4692836      1.3094203      1.185852       21050.758      10.453538      10.585077      10.394611      10.380925      0.017103728    19.222126      19.066603      57.437163      10.478374    
     12300   1.2036698     -0.49660997     1.3088195      1.2036698      21050.758      10.287437      10.35155       10.321233      10.189527     -0.005989977    19.222126      19.066603      57.437163      10.332084    
     12400   1.1898773     -0.48416992     1.3005717      1.1898773      21050.758      10.361095      10.408012      10.396937      10.278336     -0.12262712     19.222126      19.066603      57.437163      10.388443    
     12500   1.1848913     -0.48975634     1.2875065      1.1848913      21050.758      10.233244      10.275726      10.19634       10.227665     -0.14153462     19.222126      19.066603      57.437163      10.263237    
     12600   1.1811849     -0.49937854     1.272325       1.1811849      21050.758      10.22792       10.323519      10.25002       10.110221      0.0052772485   19.222126      19.066603      57.437163      10.243386    
     12700   1.1799579     -0.51005451     1.2598086      1.1799579      21050.758      10.18692       10.227997      10.195601      10.137162     -0.10726172     19.222126      19.066603      57.437163      10.194908    
     12800   1.1808776     -0.52077173     1.2504708      1.1808776      21050.758      10.192047      10.236136      10.196927      10.143078      0.015240954    19.222126      19.066603      57.437163      10.190067    
     12900   1.1709212     -0.50899642     1.2473121      1.1709212      21050.758      10.210942      10.322131      10.214478      10.096219     -0.058084977    19.222126      19.066603      57.437163      10.203482    
     13000   1.181297      -0.52058382     1.2512879      1.181297       21050.758      10.03647       10.143843      9.9413798      10.024188     -0.031305263    19.222126      19.066603      57.437163      10.054426    
     13100   1.1832814     -0.51346        1.2613881      1.1832814      21050.758      10.245414      10.225239      10.269275      10.241728     -0.033081316    19.222126      19.066603      57.437163      10.247793    
     13200   1.1827991     -0.4979846      1.2761402      1.1827991      21050.758      10.183892      10.220039      10.221539      10.110097     -0.0058939136   19.222126      19.066603      57.437163      10.208583    
     13300   1.1895141     -0.49399941     1.2901973      1.1895141      21050.758      10.322164      10.434854      10.28048       10.251159      0.033730137    19.222126      19.066603      57.437163      10.343922    
     13400   1.1934761     -0.48874275     1.3013968      1.1934761      21050.758      10.348805      10.206742      10.44602       10.393651     -0.076762051    19.222126      19.066603      57.437163      10.378487    
     13500   1.1936483     -0.48297444     1.3074234      1.1936483      21050.758      10.35795       10.49383       10.410152      10.169869     -0.050943783    19.222126      19.066603      57.437163      10.392536    
     13600   1.1941199     -0.48432511     1.3067802      1.1941199      21050.758      10.311183      10.384388      10.238374      10.310787     -0.011622159    19.222126      19.066603      57.437163      10.350872    
     13700   1.1889091     -0.48613925     1.2971501      1.1889091      21050.758      10.27185       10.308765      10.21765       10.289134     -0.10346462     19.222126      19.066603      57.437163      10.306742    
     13800   1.1819717     -0.49076725     1.2821164      1.1819717      21050.758      10.295551      10.134685      10.226962      10.525005     -0.037623631    19.222126      19.066603      57.437163      10.312497    
     13900   1.1850693     -0.51196387     1.265566       1.1850693      21050.758      10.15282       10.19399       10.185414      10.079058      0.027436934    19.222126      19.066603      57.437163      10.170756    
     14000   1.17708       -0.51476748     1.250779       1.17708        21050.758      10.187083      10.097623      10.238837      10.224789     -0.037201039    19.222126      19.066603      57.437163      10.186021    
     14100   1.1631657     -0.50385287     1.240823       1.1631657      21050.758      10.203915      10.074755      10.239724      10.297266     -0.011442336    19.222126      19.066603      57.437163      10.190829    
     14200   1.1719218     -0.51992495     1.2378844      1.1719218      21050.758      10.101543      10.141797      10.006319      10.156513      0.043973629    19.222126      19.066603      57.437163      10.098098    
     14300   1.1788924     -0.52539058     1.2428743      1.1788924      21050.758      10.10153       10.127563      10.097937      10.079089     -0.074122039    19.222126      19.066603      57.437163      10.103077    
     14400   1.1750822     -0.50896688     1.253583       1.1750822      21050.758      10.174146      10.140317      10.224716      10.157407     -0.024468332    19.222126      19.066603      57.437163      10.177478    
     14500   1.1686423     -0.48451445     1.268376       1.1686423      21050.758      10.283201      10.389387      10.249295      10.21092      -0.091204821    19.222126      19.066603      57.437163      10.287925    
     14600   1.1828458     -0.4898411      1.2843536      1.1828458      21050.758      10.3192        10.405982      10.227386      10.324232     -0.067184926    19.222126      19.066603      57.437163      10.335478    
     14700   1.1875867     -0.48559291     1.295713       1.1875867      21050.758      10.306269      10.241172      10.328956      10.34868      -0.04508167     19.222126      19.066603      57.437163      10.335495    
     14800   1.1898623     -0.48658167     1.2981374      1.1898623      21050.758      10.161886      10.278073      10.139736      10.067849     -0.032194118    19.222126      19.066603      57.437163      10.211279    
     14900   1.1855932     -0.48519817     1.2931176      1.1855932      21050.758      10.40111       10.325688      10.362022      10.515621      0.027249432    19.222126      19.066603      57.437163      10.416086    
     15000   1.178864      -0.48750194     1.2807204      1.178864       21050.758      10.399047      10.355311      10.288864      10.552966      0.058926499    19.222126      19.066603      57.437163      10.40188     
     15100   1.1725989     -0.49150361     1.2673215      1.1725989      21050.758      10.298789      10.286664      10.227993      10.381711     -0.022441103    19.222126      19.066603      57.437163      10.300543    
     15200   1.1745505     -0.50606619     1.2556861      1.1745505      21050.758      10.17143       10.336371      10.042485      10.135434     -0.046815647    19.222126      19.066603      57.437163      10.177199    
     15300   1.176227      -0.51666582     1.2476011      1.176227       21050.758      10.139891      10.152186      10.173221      10.094264     -0.0041044883   19.222126      19.066603      57.437163      10.14145     
     15400   1.1772059     -0.52090125     1.244834       1.1772059      21050.758      10.130517      10.098948      10.190999      10.101606     -0.08565975     19.222126      19.066603      57.437163      10.130462    
     15500   1.1779898     -0.51781219     1.2490989      1.1779898      21050.758      10.271873      10.161365      10.311609      10.342644      0.040732302    19.222126      19.066603      57.437163      10.258712    
     15600   1.1755036     -0.50378333     1.2593986      1.1755036      21050.758      10.170701      10.155464      10.210963      10.145674      0.0023029618   19.222126      19.066603      57.437163      10.180272    
     15700   1.1815565     -0.49988506     1.2723758      1.1815565      21050.758      10.262138      10.217919      10.303717      10.264777     -0.08315039     19.222126      19.066603      57.437163      10.27345     
     15800   1.1841763     -0.49165901     1.2845314      1.1841763      21050.758      10.338084      10.269646      10.398982      10.345624     -0.042323864    19.222126      19.066603      57.437163      10.352219    
     15900   1.1933845     -0.49730162     1.2927005      1.1933845      21050.758      10.335305      10.300972      10.294426      10.410517     -0.031183679    19.222126      19.066603      57.437163      10.35795     
     16000   1.1863462     -0.48430151     1.2951436      1.1863462      21050.758      10.247747      10.243094      10.207531      10.292616     -0.027390158    19.222126      19.066603      57.437163      10.283595    
     16100   1.1853839     -0.48743382     1.2905679      1.1853839      21050.758      10.281185      10.23474       10.237145      10.37167       0.080554682    19.222126      19.066603      57.437163      10.308349    
     16200   1.1856565     -0.49996162     1.278449       1.1856565      21050.758      10.271052      10.41999       10.172182      10.220983      0.12949786     19.222126      19.066603      57.437163      10.287341    
     16300   1.1834861     -0.51206806     1.2630871      1.1834861      21050.758      10.257561      10.254344      10.170458      10.34788       0.0027569089   19.222126      19.066603      57.437163      10.260146    
     16400   1.1689459     -0.50474214     1.2486036      1.1689459      21050.758      10.275981      10.291034      10.230721      10.306189      0.12188173     19.222126      19.066603      57.437163      10.26182     
     16500   1.1667918     -0.50998535     1.2401294      1.1667918      21050.758      10.227712      10.272345      10.085628      10.325164      0.088671795    19.222126      19.066603      57.437163      10.211008    
     16600   1.1715721     -0.51809418     1.2391908      1.1715721      21050.758      10.119818      10.137012      10.117478      10.104963      0.027358967    19.222126      19.066603      57.437163      10.115434    
     16700   1.173002      -0.51504535     1.2443844      1.173002       21050.758      10.164457      10.134961      10.120113      10.238298      0.060342661    19.222126      19.066603      57.437163      10.159781    
     16800   1.1799486     -0.51536044     1.2544888      1.1799486      21050.758      10.085674      10.030835      10.119647      10.10654       0.049723483    19.222126      19.066603      57.437163      10.100784    
     16900   1.1722389     -0.49184329     1.2664418      1.1722389      21050.758      10.243888      10.289674      10.145163      10.296827     -0.064834495    19.222126      19.066603      57.437163      10.251509    
     17000   1.1871694     -0.50312687     1.277553       1.1871694      21050.758      10.222324      10.331791      10.194209      10.14097       0.014652571    19.222126      19.066603      57.437163      10.243705    
     17100   1.1844566     -0.49367655     1.2829343      1.1844566      21050.758      10.19672       10.212728      10.297504      10.079928     -0.035988498    19.222126      19.066603      57.437163      10.226629    
     17200   1.1890742     -0.50101229     1.2825248      1.1890742      21050.758      10.245542      10.283755      10.18277       10.270103      0.068430915    19.222126      19.066603      57.437163      10.269043    
     17300   1.1892364     -0.50880636     1.2749739      1.1892364      21050.758      10.194802      10.186161      10.259278      10.138966      0.16461635     19.222126      19.066603      57.437163      10.216986    
     17400   1.1782279     -0.50389167     1.2633765      1.1782279      21050.758      10.220955      10.115439      10.318107      10.22932      -0.15583683     19.222126      19.066603      57.437163      10.228329    
     17500   1.1736497     -0.50964885     1.2507524      1.1736497      21050.758      10.104481      10.029607      10.048817      10.235019     -0.026483655    19.222126      19.066603      57.437163      10.113543    
     17600   1.1812206     -0.53200609     1.2397509      1.1812206      21050.758      10.03674       9.9865377      10.076902      10.04678       0.085870049    19.222126      19.066603      57.437163      10.043125    
     17700   1.1668637     -0.51758818     1.2326344      1.1668637      21050.758      10.200995      10.204298      10.087263      10.311423     -0.08895821     19.222126      19.066603      57.437163      10.180079    
     17800   1.1668588     -0.51752139     1.2326939      1.1668588      21050.758      10.105056      10.070069      10.106973      10.138126     -0.0034939669   19.222126      19.066603      57.437163      10.095989    
     17900   1.1795216     -0.52833934     1.2408693      1.1795216      21050.758      10.135674      10.0883        10.145493      10.17323      -0.062095503    19.222126      19.066603      57.437163      10.13102     
     18000   1.1750129     -0.50877233     1.2536736      1.1750129      21050.758      10.224361      10.330785      10.140076      10.202223      0.023332917    19.222126      19.066603      57.437163      10.221613    
     18100   1.1788749     -0.50007235     1.2681663      1.1788749      21050.758      10.209516      10.246184      10.332555      10.049808      0.13768746     19.222126      19.066603      57.437163      10.223085    
     18200   1.1880027     -0.50171286     1.2802169      1.1880027      21050.758      10.243157      10.216004      10.210898      10.302568      0.039549581    19.222126      19.066603      57.437163      10.264642    
     18300   1.1866802     -0.49389934     1.2860469      1.1866802      21050.758      10.350509      10.354313      10.456323      10.240892      0.13548165     19.222126      19.066603      57.437163      10.364633    
     18400   1.1885095     -0.49762019     1.2850698      1.1885095      21050.758      10.255772      10.155488      10.397739      10.214091     -0.075390138    19.222126      19.066603      57.437163      10.280561    
     18500   1.1889723     -0.50569402     1.2776901      1.1889723      21050.758      10.170322      10.118448      10.371201      10.021316     -0.024107104    19.222126      19.066603      57.437163      10.198231    
     18600   1.1834353     -0.51067658     1.2644024      1.1834353      21050.758      10.15703       10.088805      10.260368      10.121917      0.14394997     19.222126      19.066603      57.437163      10.173285    
     18700   1.178349      -0.51695559     1.2504942      1.178349       21050.758      10.219083      10.226476      10.195376      10.235395      0.02725475     19.222126      19.066603      57.437163      10.213804    
     18800   1.1758548     -0.52457155     1.2391371      1.1758548      21050.758      10.132968      9.9698513      10.311332      10.117721      0.084699146    19.222126      19.066603      57.437163      10.126914    
     18900   1.1714468     -0.52418194     1.232915       1.1714468      21050.758      10.225485      10.114899      10.309017      10.252539      0.0096091233   19.222126      19.066603      57.437163      10.20184     
     19000   1.1791971     -0.53571321     1.2330087      1.1791971      21050.758      10.08945       10.143993      10.02138       10.102976     -0.025792592    19.222126      19.066603      57.437163      10.082615    
     19100   1.1782257     -0.52820955     1.2390554      1.1782257      21050.758      10.110023      10.043099      10.172956      10.114014      0.046953782    19.222126      19.066603      57.437163      10.106708    
     19200   1.1799494     -0.52169166     1.2481587      1.1799494      21050.758      10.16485       10.200338      10.15546       10.138751     -0.0071968176   19.222126      19.066603      57.437163      10.1639      
     19300   1.1884355     -0.52455694     1.258022       1.1884355      21050.758      10.16234       10.11736       10.185784      10.183875      0.096036014    19.222126      19.066603      57.437163      10.171561    
     19400   1.1943024     -0.52602993     1.265349       1.1943024      21050.758      10.081         10.064435      10.18191       9.9966553     -0.029904427    19.222126      19.066603      57.437163      10.107545    
     19500   1.1863289     -0.51225054     1.2671686      1.1863289      21050.758      10.050638      10.060324      10.035503      10.056087      0.05247592     19.222126      19.066603      57.437163      10.082733    
     19600   1.1774312     -0.50064605     1.2654272      1.1774312      21050.758      10.141675      10.073702      10.166921      10.184402     -0.10883071     19.222126      19.066603      57.437163      10.160841    
     19700   1.179958      -0.50770359     1.2621597      1.179958       21050.758      10.188488      10.106746      10.221922      10.236795     -0.016610369    19.222126      19.066603      57.437163      10.198634    
     19800   1.1758154     -0.50663415     1.2570155      1.1758154      21050.758      10.193528      10.073311      10.322989      10.184284     -0.020277095    19.222126      19.066603      57.437163      10.197911    
     19900   1.1769036     -0.51332471     1.2519572      1.1769036      21050.758      10.215873      10.250254      10.140477      10.256887      0.081238818    19.222126      19.066603      57.437163      10.212451    
     20000   1.1752536     -0.51448169     1.2483253      1.1752536      21050.758      10.193004      10.194858      10.179104      10.205048      0.020530258    19.222126      19.066603      57.437163      10.188761    
     20100   1.1743959     -0.51623321     1.2452872      1.1743959      21050.758      10.233605      10.178208      10.230379      10.292226      0.0019646256   19.222126      19.066603      57.437163      10.221334    
     20200   1.176935      -0.52178763     1.2435413      1.176935       21050.758      10.084866      10.096853      10.13914       10.018606     -0.012507911    19.222126      19.066603      57.437163      10.089128    
     20300   1.1749655     -0.51882891     1.2435459      1.1749655      21050.758      10.157971      10.134807      10.260646      10.078461      0.058620732    19.222126      19.066603      57.437163      10.153254    
     20400   1.1655414     -0.50277604     1.2454632      1.1655414      21050.758      10.172583      10.206229      10.258513      10.053008     -0.043518902    19.222126      19.066603      57.437163      10.167988    
     20500   1.1762118     -0.51479655     1.2494476      1.1762118      21050.758      10.220951      10.262123      10.228443      10.172287     -0.077118666    19.222126      19.066603      57.437163      10.214396    
     20600   1.1831051     -0.52152176     1.253062       1.1831051      21050.758      10.158001      10.235579      10.118793      10.11963      -0.021216594    19.222126      19.066603      57.437163      10.162796    
     20700   1.1751002     -0.50728433     1.2552925      1.1751002      21050.758      10.202856      10.261669      10.120543      10.226357      0.041864191    19.222126      19.066603      57.437163      10.20437     
     20800   1.1803366     -0.51393273     1.2564984      1.1803366      21050.758      10.115581      10.203006      10.099878      10.04386      -0.17265866     19.222126      19.066603      57.437163      10.129026    
     20900   1.1832127     -0.51894114     1.255804       1.1832127      21050.758      10.050953      10.007934      9.9048069      10.240118     -0.1232704      19.222126      19.066603      57.437163      10.071645    
     21000   1.1855716     -0.52584036     1.2524429      1.1855716      21050.758      10.182195      9.9837185      10.181593      10.381275      0.047723088    19.222126      19.066603      57.437163      10.183398    
     21100   1.169782      -0.50543311     1.2491668      1.169782       21050.758      10.196272      10.237674      10.277683      10.073459      0.027175618    19.222126      19.066603      57.437163      10.192469    
     21200   1.1723903     -0.51352929     1.2449829      1.1723903      21050.758      10.077643      10.06705       10.107014      10.058864      0.095999947    19.222126      19.066603      57.437163      10.084234    
     21300   1.1721674     -0.51601845     1.2421594      1.1721674      21050.758      10.061857      10.102992      9.998125       10.084454     -0.066017234    19.222126      19.066603      57.437163      10.067564    
     21400   1.1596268     -0.49926289     1.2401049      1.1596268      21050.758      10.119418      10.159417      10.117617      10.081221     -0.064635876    19.222126      19.066603      57.437163      10.115997    
     21500   1.1721339     -0.51687717     1.2412504      1.1721339      21050.758      10.118102      10.134015      10.120412      10.099879     -0.014174672    19.222126      19.066603      57.437163      10.115989    
     21600   1.1761282     -0.51928722     1.2448316      1.1761282      21050.758      10.184438      10.177416      10.212509      10.16339       0.024040268    19.222126      19.066603      57.437163      10.177754    
     21700   1.1838567     -0.52676842     1.2489427      1.1838567      21050.758      10.031727      10.046646      9.9997057      10.048831      0.15131069     19.222126      19.066603      57.437163      10.04792     
     21800   1.1747234     -0.51140367     1.250608       1.1747234      21050.758      10.209942      10.12981       10.136997      10.363019      0.023029617    19.222126      19.066603      57.437163      10.205901    
     21900   1.1793208     -0.51572444     1.253183       1.1793208      21050.758      10.152095      10.127549      10.024659      10.304078     -0.035570267    19.222126      19.066603      57.437163      10.157737    
     22000   1.1744598     -0.50597934     1.255637       1.1744598      21050.758      10.278149      10.269151      10.141831      10.423466     -0.089502835    19.222126      19.066603      57.437163      10.270755    
     22100   1.1782898     -0.51139627     1.2559647      1.1782898      21050.758      10.155734      10.181434      10.078228      10.20754      -0.00067823526  19.222126      19.066603      57.437163      10.16371     
     22200   1.1726873     -0.50519922     1.2537584      1.1726873      21050.758      10.141151      10.138222      10.30438       9.9808503      0.046730478    19.222126      19.066603      57.437163      10.148713    
     22300   1.1775129     -0.51592943     1.2502663      1.1775129      21050.758      10.172848      10.293709      10.178536      10.0463        0.035512585    19.222126      19.066603      57.437163      10.173023    
     22400   1.1776399     -0.52121357     1.2451726      1.1776399      21050.758      10.104943      10.229183      10.0638        10.021846     -0.1032089      19.222126      19.066603      57.437163      10.108369    
     22500   1.1707339     -0.51614451     1.2398832      1.1707339      21050.758      10.138043      10.152826      10.227214      10.034091     -0.017379425    19.222126      19.066603      57.437163      10.132112    
     22600   1.1709222     -0.52027423     1.2360359      1.1709222      21050.758      10.15994       9.992823       10.235764      10.251232      0.064535703    19.222126      19.066603      57.437163      10.14747     
     22700   1.1735288     -0.52683885     1.233381       1.1735288      21050.758      10.022575      10.116122      9.9749475      9.9766543      0.019312511    19.222126      19.066603      57.437163      10.024331    
     22800   1.1718813     -0.52566216     1.2320866      1.1718813      21050.758      9.989179       9.8471072      10.033703      10.086727      0.062286684    19.222126      19.066603      57.437163      9.9937443    
     22900   1.1683572     -0.52054348     1.2319192      1.1683572      21050.758      10.109939      10.080665      10.187986      10.061167      0.073050079    19.222126      19.066603      57.437163      10.099498    
     23000   1.1823204     -0.53949852     1.2339083      1.1823204      21050.758      10.100606      10.082102      10.065447      10.15427      -0.066279312    19.222126      19.066603      57.437163      10.093301    
     23100   1.1703339     -0.51823829     1.2371893      1.1703339      21050.758      10.174264      10.219516      10.329243      9.9740323     -0.016760148    19.222126      19.066603      57.437163      10.161188    
     23200   1.170662      -0.51409592     1.2418239      1.170662       21050.758      10.236231      10.238204      10.233516      10.236973      0.046315144    19.222126      19.066603      57.437163      10.220175    
     23300   1.1771908     -0.51925453     1.2464581      1.1771908      21050.758      10.18102       10.148153      10.140893      10.254013      0.021623654    19.222126      19.066603      57.437163      10.176382    
     23400   1.1674048     -0.50153758     1.2494966      1.1674048      21050.758      10.21121       10.234002      10.307821      10.091807     -0.041381316    19.222126      19.066603      57.437163      10.205901    
     23500   1.1790534     -0.51850199     1.2500044      1.1790534      21050.758      10.132002      10.093617      10.300028      10.00236       0.0068375569   19.222126      19.066603      57.437163      10.136934    
     23600   1.1658309     -0.50208622     1.2465873      1.1658309      21050.758      10.27159       10.255345      10.189128      10.370296     -0.073583874    19.222126      19.066603      57.437163      10.255952    
     23700   1.1703825     -0.51283176     1.2426688      1.1703825      21050.758      10.248694      10.225877      10.315601      10.204604      0.061597444    19.222126      19.066603      57.437163      10.231951    
     23800   1.1739758     -0.52061178     1.2402785      1.1739758      21050.758      10.188912      10.275196      10.284158      10.007381     -0.029328243    19.222126      19.066603      57.437163      10.177125    
     23900   1.1713353     -0.51850784     1.2384219      1.1713353      21050.758      10.122087      10.016         10.153472      10.196788     -0.0051150624   19.222126      19.066603      57.437163      10.116655    
     24000   1.1753758     -0.52622826     1.236762       1.1753758      21050.758      10.10298       10.026159      10.17743       10.105352      0.0043217767   19.222126      19.066603      57.437163      10.098236    
     24100   1.1662492     -0.51389545     1.2354054      1.1662492      21050.758      10.211364      10.200393      10.30111       10.13259      -0.057681263    19.222126      19.066603      57.437163      10.191945    
     24200   1.172596      -0.52389441     1.2349264      1.172596       21050.758      10.013464      10.033694      10.044409      9.9622894     -0.039664063    19.222126      19.066603      57.437163      10.017885    
     24300   1.1629148     -0.50896921     1.2353303      1.1629148      21050.758      10.156508      10.037886      10.293116      10.138523      0.0040152401   19.222126      19.066603      57.437163      10.143755    
     24400   1.1739057     -0.52366518     1.23712        1.1739057      21050.758      10.155772      10.140258      10.175361      10.151699      0.018405206    19.222126      19.066603      57.437163      10.144899    
     24500   1.165928      -0.50973623     1.239083       1.165928       21050.758      10.191104      10.259224      10.110896      10.203193      0.032189579    19.222126      19.066603      57.437163      10.177852    
     24600   1.1734377     -0.51900064     1.2410826      1.1734377      21050.758      10.055296      10.058434      10.094922      10.012531     -0.1123261      19.222126      19.066603      57.437163      10.060732    
     24700   1.1687321     -0.51222155     1.2408036      1.1687321      21050.758      10.187212      10.221223      10.159154      10.18126      -0.084262367    19.222126      19.066603      57.437163      10.176159    
     24800   1.1741195     -0.52153492     1.239571       1.1741195      21050.758      10.12898       10.212421      10.0114        10.163119     -0.087584132    19.222126      19.066603      57.437163      10.12385     
     24900   1.1672386     -0.51308399     1.237701       1.1672386      21050.758      10.189403      10.170744      10.213526      10.18394       0.0654495      19.222126      19.066603      57.437163      10.174979    
     25000   1.1654391     -0.51416958     1.2339163      1.1654391      21050.758      10.137694      10.078847      10.182792      10.151445      0.064134784    19.222126      19.066603      57.437163      10.125839    
     25100   1.1722683     -0.52817407     1.2301552      1.1722683      21050.758      10.088896      10.051946      10.059848      10.154894      0.0005617904   19.222126      19.066603      57.437163      10.079276    
     25200   1.165088      -0.52021944     1.2273397      1.165088       21050.758      10.105196      10.037002      10.098847      10.179738      0.067298497    19.222126      19.066603      57.437163      10.090757    
     25300   1.1670153     -0.52384469     1.2266053      1.1670153      21050.758      10.170584      10.173879      10.187064      10.150811     -0.0075799033   19.222126      19.066603      57.437163      10.147376    
     25400   1.1719496     -0.52949202     1.2283591      1.1719496      21050.758      10.055427      9.9694495      10.209161      9.9876705      0.0113735      19.222126      19.066603      57.437163      10.048124    
     25500   1.1714113     -0.5268245      1.2302192      1.1714113      21050.758      10.1735        10.021587      10.247796      10.251115     -0.04027149     19.222126      19.066603      57.437163      10.153547    
     25600   1.1653645     -0.5149913      1.2329826      1.1653645      21050.758      10.125159      10.115668      9.9678707      10.291937     -0.047058268    19.222126      19.066603      57.437163      10.11391     
     25700   1.1704788     -0.52027033     1.2353748      1.1704788      21050.758      10.123446      10.131704      10.177499      10.061134      0.021162978    19.222126      19.066603      57.437163      10.1148      
     25800   1.164528      -0.50972155     1.2369976      1.164528       21050.758      10.164713      10.044279      10.130831      10.319028     -0.11274491     19.222126      19.066603      57.437163      10.152619    
     25900   1.1765105     -0.52736856     1.2373237      1.1765105      21050.758      10.279438      10.330886      10.332325      10.175104     -0.028844577    19.222126      19.066603      57.437163      10.253572    
     26000   1.1694863     -0.51729525     1.2368612      1.1694863      21050.758      10.122724      10.119504      10.138331      10.110337     -0.084207069    19.222126      19.066603      57.437163      10.115653    
     26100   1.1693925     -0.51858112     1.2354346      1.1693925      21050.758      10.0527        10.105498      10.029552      10.02305       0.068781516    19.222126      19.066603      57.437163      10.052808    
     26200   1.1750878     -0.53075745     1.2318007      1.1750878      21050.758      9.9972281      10.048367      10.018572      9.9247455      0.022077979    19.222126      19.066603      57.437163      10.000518    
     26300   1.1711848     -0.53044547     1.2262585      1.1711848      21050.758      10.113939      10.19934       10.108799      10.033677      0.085330618    19.222126      19.066603      57.437163      10.097345    
     26400   1.1709643     -0.5348348      1.2215385      1.1709643      21050.758      9.9678687      9.9189805      9.9127865      10.071839     -0.065568963    19.222126      19.066603      57.437163      9.9645046    
     26500   1.1679603     -0.5343398      1.2175276      1.1679603      21050.758      10.004003      9.8809628      10.191758      9.9392892     -0.070973758    19.222126      19.066603      57.437163      9.9921881    
     26600   1.1601839     -0.52512415     1.2150793      1.1601839      21050.758      10.04852       10.103885      10.007576      10.034098     -0.0010360028   19.222126      19.066603      57.437163      10.028786    
     26700   1.1627337     -0.52889777     1.2151301      1.1627337      21050.758      10.027122      10.07367       9.9821148      10.025582      0.0054139451   19.222126      19.066603      57.437163      10.010068    
     26800   1.1596038     -0.51983285     1.2195004      1.1596038      21050.758      10.117358      10.261871      10.101076      9.9891261      0.066142597    19.222126      19.066603      57.437163      10.093586    
     26900   1.1661619     -0.52182867     1.2273413      1.1661619      21050.758      10.097248      10.103974      10.07754       10.110231     -0.022329589    19.222126      19.066603      57.437163      10.083788    
     27000   1.1725687     -0.52284887     1.2359309      1.1725687      21050.758      10.045195      10.059253      10.053883      10.02245      -0.094138463    19.222126      19.066603      57.437163      10.046721    
     27100   1.1747986     -0.51842826     1.2436962      1.1747986      21050.758      10.219756      10.295811      10.236951      10.126506     -0.058485101    19.222126      19.066603      57.437163      10.207597    
     27200   1.1780316     -0.51786497     1.2491088      1.1780316      21050.758      10.275809      10.240545      10.187234      10.399647     -0.066166506    19.222126      19.066603      57.437163      10.262174    
     27300   1.1755898     -0.51282023     1.2504909      1.1755898      21050.758      10.091574      10.015195      10.049719      10.209807     -0.018280401    19.222126      19.066603      57.437163      10.101961    
     27400   1.1776116     -0.518292       1.2480519      1.1776116      21050.758      10.111356      10.013245      10.181127      10.139696     -0.0038971747   19.222126      19.066603      57.437163      10.116873    
     27500   1.1718078     -0.51744644     1.240192       1.1718078      21050.758      10.097797      9.9949373      10.170044      10.128409      0.011775382    19.222126      19.066603      57.437163      10.09712     
     27600   1.1702372     -0.52684987     1.2284328      1.1702372      21050.758      10.152706      10.075726      10.188516      10.193876     -0.092291031    19.222126      19.066603      57.437163      10.133523    
     27700   1.1644571     -0.52917632     1.2174366      1.1644571      21050.758      10.085937      10.130883      10.082551      10.044377     -0.049473321    19.222126      19.066603      57.437163      10.063962    
     27800   1.1639202     -0.53629603     1.2095115      1.1639202      21050.758      9.9699555      9.9983802      9.9140482      9.9974382      0.043729681    19.222126      19.066603      57.437163      9.954308     
     27900   1.1665777     -0.54508564     1.2047081      1.1665777      21050.758      10.0261        10.046141      9.9481885      10.083969      0.020964321    19.222126      19.066603      57.437163      9.9987495    
     28000   1.1612086     -0.53750689     1.2042334      1.1612086      21050.758      10.02019       9.9481837      9.9978805      10.114505      0.068730639    19.222126      19.066603      57.437163      9.9930911    
     28100   1.1576754     -0.52785036     1.2085903      1.1576754      21050.758      10.120044      9.9785707      10.189198      10.192364      0.15531624     19.222126      19.066603      57.437163      10.085032    
     28200   1.1693563     -0.53679909     1.2171623      1.1693563      21050.758      9.9962587      9.8874758      10.016012      10.085288     -0.036670102    19.222126      19.066603      57.437163      9.9850298    
     28300   1.1636297     -0.51910154     1.2262703      1.1636297      21050.758      10.013294      9.9578052      10.090124      9.9919525      0.027560768    19.222126      19.066603      57.437163      10.009079    
     28400   1.1702917     -0.52111455     1.2342498      1.1702917      21050.758      10.140923      10.086122      10.130176      10.20647       0.024775418    19.222126      19.066603      57.437163      10.129004    
     28500   1.1708874     -0.5159272      1.2403307      1.1708874      21050.758      10.175191      10.152183      10.073499      10.299892     -0.058007731    19.222126      19.066603      57.437163      10.165143    
     28600   1.176186      -0.52238093     1.2418246      1.176186       21050.758      10.11656       9.9398633      10.246672      10.163143     -0.032842159    19.222126      19.066603      57.437163      10.11521     
     28700   1.1729224     -0.52283864     1.2364717      1.1729224      21050.758      10.159836      10.204945      10.103931      10.170632      0.017985805    19.222126      19.066603      57.437163      10.147815    
     28800   1.1727216     -0.53260241     1.2264066      1.1727216      21050.758      10.119231      10.087124      10.021718      10.248851      0.032753128    19.222126      19.066603      57.437163      10.102135    
     28900   1.1637893     -0.53032084     1.2152903      1.1637893      21050.758      10.029299      10.002637      10.025911      10.059348      0.020565276    19.222126      19.066603      57.437163      10.012138    
     29000   1.1608336     -0.53558564     1.2055922      1.1608336      21050.758      10.096388      10.189665      10.091895      10.007604      0.016793656    19.222126      19.066603      57.437163      10.061285    
     29100   1.1601849     -0.53936898     1.2008358      1.1601849      21050.758      9.9697673      10.037374      9.9571223      9.9148059     -0.11340088     19.222126      19.066603      57.437163      9.9454673    
     29200   1.1574789     -0.53419735     1.2019487      1.1574789      21050.758      9.9385248      9.986268       9.9557944      9.8735119      0.022142008    19.222126      19.066603      57.437163      9.9191769    
     29300   1.1552731     -0.52594448     1.2068929      1.1552731      21050.758      10.107076      10.153882      10.165246      10.002102     -0.0084551398   19.222126      19.066603      57.437163      10.07196     
     29400   1.1652514     -0.53294597     1.2148583      1.1652514      21050.758      9.9908346      9.9881993      9.9958341      9.9884702     -0.063801617    19.222126      19.066603      57.437163      9.9779682    
     29500   1.1620144     -0.52041759     1.2225314      1.1620144      21050.758      10.190216      10.096362      10.1988        10.275486      0.16959018     19.222126      19.066603      57.437163      10.160522    
     29600   1.1649263     -0.51877731     1.2285394      1.1649263      21050.758      10.065081      10.156171      9.95921        10.079862     -0.05551438     19.222126      19.066603      57.437163      10.056772    
     29700   1.1675097     -0.51904483     1.2321467      1.1675097      21050.758      10.12347       10.186019      10.185876      9.9985136     -0.042952225    19.222126      19.066603      57.437163      10.111593    
     29800   1.1605645     -0.50842044     1.2323537      1.1605645      21050.758      10.182785      10.233744      10.094094      10.220518      0.0046360202   19.222126      19.066603      57.437163      10.163826    
     29900   1.1696614     -0.5249806      1.2294385      1.1696614      21050.758      10.169881      10.169302      10.174021      10.166319     -0.023200633    19.222126      19.066603      57.437163      10.149592    
     30000   1.1656843     -0.52485163     1.2236019      1.1656843      21050.758      10.071858      9.997965       10.121302      10.096306      0.056473796    19.222126      19.066603      57.437163      10.057778    
     30100   1.1636111     -0.52760276     1.2177411      1.1636111      21050.758      10.028501      10.018245      10.038893      10.028365     -0.012480565    19.222126      19.066603      57.437163      10.013889    
     30200   1.159907      -0.52723869     1.2125494      1.159907       21050.758      10.109509      10.195491      10.071676      10.061359     -0.020301544    19.222126      19.066603      57.437163      10.07975     
     30300   1.157962      -0.52638052     1.2104901      1.157962       21050.758      10.079488      10.085807      9.9813351      10.171323     -0.074107328    19.222126      19.066603      57.437163      10.051359    
     30400   1.1670178     -0.53886691     1.2115869      1.1670178      21050.758      10.08238       10.136809      9.9630801      10.147251      0.057858597    19.222126      19.066603      57.437163      10.054993    
     30500   1.1588375     -0.52406765     1.2141161      1.1588375      21050.758      10.117847      10.247474      10.078326      10.02774      -0.10095223     19.222126      19.066603      57.437163      10.08863     
     30600   1.1666523     -0.53078289     1.2191226      1.1666523      21050.758      10.025178      9.9383682      10.00363       10.133535      0.059686001    19.222126      19.066603      57.437163      10.012355    
     30700   1.1633948     -0.52160781     1.2234117      1.1633948      21050.758      10.015365      9.9102271      10.009097      10.126771      0.035211304    19.222126      19.066603      57.437163      10.008038    
     30800   1.1746792     -0.53592445     1.226021       1.1746792      21050.758      9.9960826      9.972672       10.026987      9.9885885      0.012734926    19.222126      19.066603      57.437163      9.993734     
     30900   1.169299      -0.52897968     1.2248957      1.169299       21050.758      10.049956      9.9679165      10.114668      10.067285     -0.09372445     19.222126      19.066603      57.437163      10.039862    
     31000   1.1609264     -0.51870151     1.2226155      1.1609264      21050.758      10.015277      10.054968      10.064448      9.9264147      0.076345399    19.222126      19.066603      57.437163      10.007164    
     31100   1.1706085     -0.53565081     1.2201888      1.1706085      21050.758      10.138234      10.188168      10.088725      10.137809     -0.018367143    19.222126      19.066603      57.437163      10.112585    
     31200   1.1615285     -0.52653688     1.2156833      1.1615285      21050.758      9.9929686      9.9646185      9.9784235      10.035864      0.0039742177   19.222126      19.066603      57.437163      9.9806649    
     31300   1.1632102     -0.53435719     1.2103854      1.1632102      21050.758      10.088459      10.0084        10.085734      10.171245      0.065365161    19.222126      19.066603      57.437163      10.059124    
     31400   1.1673662     -0.54519865     1.2057777      1.1673662      21050.758      9.9249637      9.9413074      9.9358395      9.8977441      0.11377511     19.222126      19.066603      57.437163      9.9111113    
     31500   1.161746      -0.5403929      1.2021535      1.161746       21050.758      10.02771       10.0486        10.103848      9.9306817      0.07068074     19.222126      19.066603      57.437163      9.9976073    
     31600   1.1556828     -0.53184901     1.2016029      1.1556828      21050.758      10.072662      9.9029852      10.188484      10.126517      0.039202911    19.222126      19.066603      57.437163      10.036485    
     31700   1.1568182     -0.53172322     1.2034317      1.1568182      21050.758      10.029512      9.9485865      10.01874       10.12121       0.0041501386   19.222126      19.066603      57.437163      10.000467    
     31800   1.1658432     -0.54130156     1.2073904      1.1658432      21050.758      10.015777      9.9888216      9.9655747      10.092936      0.11624605     19.222126      19.066603      57.437163      9.992378     
     31900   1.1622469     -0.53072386     1.2125738      1.1622469      21050.758      10.040384      10.099317      10.025757      9.996077      -0.03788167     19.222126      19.066603      57.437163      10.019144    
     32000   1.1699049     -0.53770066     1.2170836      1.1699049      21050.758      10.059587      9.9813231      10.189675      10.007762     -0.054782812    19.222126      19.066603      57.437163      10.040497    
     32100   1.1627039     -0.52494841     1.2190347      1.1627039      21050.758      10.05196       9.9149292      10.117072      10.123879      0.15897998     19.222126      19.066603      57.437163      10.035759    
     32200   1.167226      -0.53113362     1.2196324      1.167226       21050.758      10.119645      10.153038      10.027863      10.178033     -0.0027119631   19.222126      19.066603      57.437163      10.095724    
     32300   1.167606      -0.53263028     1.2187058      1.167606       21050.758      10.017071      10.059807      9.9646649      10.026742     -0.056525366    19.222126      19.066603      57.437163      10.004828    
     32400   1.1555547     -0.51717537     1.2160844      1.1555547      21050.758      10.18088       10.156736      10.265096      10.120809      0.089716717    19.222126      19.066603      57.437163      10.145886    
     32500   1.1654936     -0.53575582     1.2124117      1.1654936      21050.758      10.152659      10.247651      10.065867      10.144458      0.006398153    19.222126      19.066603      57.437163      10.11746     
     32600   1.1643538     -0.53586951     1.2105884      1.1643538      21050.758      9.9930287      9.9740296      9.9805279      10.024529     -0.047713918    19.222126      19.066603      57.437163      9.9756228    
     32700   1.1574951     -0.52573866     1.2104316      1.1574951      21050.758      10.11079       10.095953      10.243054      9.9933616      0.02853916     19.222126      19.066603      57.437163      10.078756    
     32800   1.1624562     -0.53317879     1.2104328      1.1624562      21050.758      10.126446      10.124999      10.152972      10.101365      0.021520005    19.222126      19.066603      57.437163      10.092489    
     32900   1.1634579     -0.53546624     1.2096479      1.1634579      21050.758      10.052079      10.080162      10.033722      10.042353      0.0044287666   19.222126      19.066603      57.437163      10.026476    
     33000   1.1637747     -0.53746659     1.2081228      1.1637747      21050.758      10.033727      9.9723754      10.13178       9.9970262     -0.04707924     19.222126      19.066603      57.437163      10.008855    
     33100   1.1649857     -0.54204403     1.2053617      1.1649857      21050.758      9.9380601      9.9537137      9.9274365      9.93303        0.096518098    19.222126      19.066603      57.437163      9.9221823    
     33200   1.1572161     -0.5336484      1.2021034      1.1572161      21050.758      10.034565      10.087103      10.092715      9.9238768      0.039160362    19.222126      19.066603      57.437163      10.00357     
     33300   1.1653519     -0.54799345     1.1999615      1.1653519      21050.758      9.9446609      9.823092       10.068251      9.9426401      0.0066855074   19.222126      19.066603      57.437163      9.9225717    
     33400   1.1636021     -0.54782074     1.1975096      1.1636021      21050.758      10.029003      10.036411      10.12163       9.9289686      0.073291725    19.222126      19.066603      57.437163      9.9940978    
     33500   1.1595121     -0.54225975     1.1969359      1.1595121      21050.758      10.03936       9.9450019      10.080898      10.09218       0.10386749     19.222126      19.066603      57.437163      10.002608    
     33600   1.1584036     -0.53927362     1.1982593      1.1584036      21050.758      10.005826      10.128293      9.902881       9.9863021      0.028725962    19.222126      19.066603      57.437163      9.974518     
     33700   1.1526995     -0.52896069     1.2000166      1.1526995      21050.758      10.076055      9.9944509      10.141994      10.09172      -0.032916056    19.222126      19.066603      57.437163      10.037875    
     33800   1.1575139     -0.53417087     1.2020277      1.1575139      21050.758      9.9353875      9.9325969      9.829294       10.044272     -0.052061604    19.222126      19.066603      57.437163      9.9165041    
     33900   1.163347      -0.54189071     1.2030571      1.163347       21050.758      9.9939872      10.016057      9.9996703      9.9662341     -0.14515737     19.222126      19.066603      57.437163      9.9689322    
     34000   1.1566755     -0.53004526     1.2048956      1.1566755      21050.758      10.061819      10.126308      10.022974      10.036173      0.052931746    19.222126      19.066603      57.437163      10.030267    
     34100   1.1627098     -0.5367326      1.2072594      1.1627098      21050.758      10.030398      10.18759       9.9973788      9.906226       0.088506968    19.222126      19.066603      57.437163      10.005071    
[...]
    991800   0.025987504   -2.5597053     -2.5207257      0.025987504    21050.758      0.4282145      0.42007732     0.45118665     0.41337952    -0.017961633    19.222126      19.066603      57.437163     -2.1451324    
    991900   0.025949102   -2.5599966     -2.5210745      0.025949102    21050.758      0.43315858     0.41345138     0.47368804     0.41233633    -0.017722848    19.222126      19.066603      57.437163     -2.1411447    
    992000   0.025763119   -2.5600737     -2.5214306      0.025763119    21050.758      0.43003885     0.41943116     0.46301533     0.40767006    -0.012924368    19.222126      19.066603      57.437163     -2.1442371    
    992100   0.025558522   -2.5601039     -2.5217677      0.025558522    21050.758      0.41833655     0.40256804     0.44740601     0.40503559    -0.010748682    19.222126      19.066603      57.437163     -2.1548385    
    992200   0.025433463   -2.56027       -2.5221214      0.025433463    21050.758      0.43065507     0.41505699     0.45320531     0.42370291    -0.0035666586   19.222126      19.066603      57.437163     -2.1443875    
    992300   0.025368222   -2.5605105     -2.5224598      0.025368222    21050.758      0.43818227     0.43245494     0.45647935     0.42561251    -0.010192296    19.222126      19.066603      57.437163     -2.1381236    
    992400   0.025126615   -2.5604963     -2.5228079      0.025126615    21050.758      0.42479605     0.41475115     0.4553702      0.40426679    -0.010751702    19.222126      19.066603      57.437163     -2.150213     
    992500   0.025251235   -2.5610218     -2.5231465      0.025251235    21050.758      0.43192609     0.42817242     0.45398011     0.41362572    -0.002368603    19.222126      19.066603      57.437163     -2.1442977    
    992600   0.024973466   -2.5609479     -2.5234893      0.024973466    21050.758      0.42129577     0.39922912     0.45786121     0.40679698    -0.0045904775   19.222126      19.066603      57.437163     -2.1539645    
    992700   0.024825426   -2.561069      -2.5238324      0.024825426    21050.758      0.42757753     0.41719519     0.45872962     0.40680777    -0.00072783429  19.222126      19.066603      57.437163     -2.1487978    
    992800   0.02480885    -2.5613894     -2.5241776      0.02480885     21050.758      0.42995016     0.41545347     0.46272455     0.41167247    -0.020193157    19.222126      19.066603      57.437163     -2.147062     
    992900   0.02475274    -2.5616355     -2.5245079      0.02475274     21050.758      0.41773806     0.40789619     0.44528176     0.40003623    -0.013980169    19.222126      19.066603      57.437163     -2.1581036    
    993000   0.024593835   -2.5617403     -2.5248511      0.024593835    21050.758      0.429658       0.41610826     0.47109341     0.40177235    -0.017920901    19.222126      19.066603      57.437163     -2.1479917    
    993100   0.024324079   -2.5616884     -2.5252038      0.024324079    21050.758      0.41626737     0.39686848     0.44382971     0.40810391     0.0030575301   19.222126      19.066603      57.437163     -2.1600895    
    993200   0.024344772   -2.5620556     -2.5255399      0.024344772    21050.758      0.42096903     0.41074167     0.45085988     0.40130556    -0.012679546    19.222126      19.066603      57.437163     -2.1563017    
    993300   0.024192273   -2.5621796     -2.5258927      0.024192273    21050.758      0.4300014      0.42398804     0.45967403     0.40634212    -0.01223315     19.222126      19.066603      57.437163     -2.1487321    
    993400   0.024160922   -2.562476      -2.5262361      0.024160922    21050.758      0.42074074     0.40782453     0.44931822     0.40507949    -0.0081487412   19.222126      19.066603      57.437163     -2.1571981    
    993500   0.023850581   -2.5623546     -2.5265802      0.023850581    21050.758      0.42617886     0.41759211     0.4716597      0.38928478    -0.0090071402   19.222126      19.066603      57.437163     -2.1527723    
    993600   0.023894329   -2.5627661     -2.5269261      0.023894329    21050.758      0.4260892      0.41880893     0.45883659     0.4006221     -0.0087662232   19.222126      19.066603      57.437163     -2.1531969    
    993700   0.023830215   -2.5630115     -2.5272676      0.023830215    21050.758      0.43342669     0.42198023     0.4742118      0.40408803    -0.013446717    19.222126      19.066603      57.437163     -2.1471026    
    993800   0.023487557   -2.5628369     -2.5276071      0.023487557    21050.758      0.41010395     0.40129743     0.43090973     0.39810468    -0.019306667    19.222126      19.066603      57.437163     -2.1678988    
    993900   0.023545899   -2.5632728     -2.5279555      0.023545899    21050.758      0.41759026     0.41382585     0.44450277     0.39444216    -0.0095276903   19.222126      19.066603      57.437163     -2.1616808    
    994000   0.023525039   -2.5635844     -2.5282983      0.023525039    21050.758      0.41984562     0.41391868     0.45704378     0.3885744     -0.013968246    19.222126      19.066603      57.437163     -2.1600455    
    994100   0.023194671   -2.5634423     -2.5286518      0.023194671    21050.758      0.42380687     0.41520677     0.44796027     0.40825356    -0.0048951893   19.222126      19.066603      57.437163     -2.1569244    
    994200   0.023258742   -2.5638826     -2.5289959      0.023258742    21050.758      0.418069       0.41068843     0.44478148     0.39873709    -0.012357554    19.222126      19.066603      57.437163     -2.1623013    
    994300   0.023105979   -2.5640006     -2.5293431      0.023105979    21050.758      0.42420081     0.41392124     0.45622313     0.40245806    -0.013924347    19.222126      19.066603      57.437163     -2.1572702    
    994400   0.022944111   -2.5641037     -2.5296889      0.022944111    21050.758      0.41167313     0.39606366     0.43964111     0.3993146     -0.011793016    19.222126      19.066603      57.437163     -2.1686043    
    994500   0.022912057   -2.5644113     -2.5300447      0.022912057    21050.758      0.40925733     0.38864624     0.43889134     0.4002344     -0.019156891    19.222126      19.066603      57.437163     -2.171079     
    994600   0.022523143   -2.5641687     -2.5303854      0.022523143    21050.758      0.42592117     0.40846271     0.45819251     0.41110829    -0.013045356    19.222126      19.066603      57.437163     -2.1568036    
    994700   0.022618555   -2.5646492     -2.5307228      0.022618555    21050.758      0.40352246     0.38988293     0.43343313     0.38725131    -0.011207049    19.222126      19.066603      57.437163     -2.1767872    
    994800   0.022321317   -2.5645512     -2.5310706      0.022321317    21050.758      0.41710957     0.39906684     0.44980971     0.40245217    -0.017591623    19.222126      19.066603      57.437163     -2.1652176    
    994900   0.022251488   -2.5647875     -2.5314116      0.022251488    21050.758      0.40632396     0.40522132     0.43453575     0.37921482    -0.010174506    19.222126      19.066603      57.437163     -2.1750188    
    995000   0.022114762   -2.5649369     -2.5317661      0.022114762    21050.758      0.42063684     0.41483454     0.4497945      0.39728146    -0.0059047392   19.222126      19.066603      57.437163     -2.1628193    
    995100   0.022058112   -2.5651977     -2.5321119      0.022058112    21050.758      0.41248109     0.39713512     0.45090876     0.38939938    -0.011677053    19.222126      19.066603      57.437163     -2.1703186    
    995200   0.021964867   -2.5654057     -2.5324597      0.021964867    21050.758      0.42820241     0.41383658     0.46261985     0.40815081    -0.010500315    19.222126      19.066603      57.437163     -2.156877     
    995300   0.021772162   -2.5654663     -2.5328094      0.021772162    21050.758      0.41321889     0.38809094     0.45132353     0.4002422     -0.013281256    19.222126      19.066603      57.437163     -2.170369     
    995400   0.021684375   -2.5656856     -2.5331604      0.021684375    21050.758      0.41775443     0.40448316     0.4556132      0.39316694    -0.012648274    19.222126      19.066603      57.437163     -2.1667417    
    995500   0.021525422   -2.5657924     -2.5335057      0.021525422    21050.758      0.42284629     0.40235139     0.4603891      0.40579838    -0.0005850076   19.222126      19.066603      57.437163     -2.1626209    
    995600   0.021273672   -2.5657577     -2.5338485      0.021273672    21050.758      0.42286737     0.41297141     0.45428196     0.40134874    -0.011360691    19.222126      19.066603      57.437163     -2.1629453    
    995700   0.021439943   -2.5663455     -2.5341869      0.021439943    21050.758      0.41927219     0.40846673     0.45589584     0.39345399    -0.003240923    19.222126      19.066603      57.437163     -2.1664371    
    995800   0.021329997   -2.5665216     -2.5345279      0.021329997    21050.758      0.40244453     0.38817292     0.43994699     0.37921367    -0.012381712    19.222126      19.066603      57.437163     -2.1815378    
    995900   0.021091233   -2.5665044     -2.5348689      0.021091233    21050.758      0.40860297     0.40440314     0.4421595      0.37924627    -0.0075134223   19.222126      19.066603      57.437163     -2.1764771    
    996000   0.020940502   -2.5666264     -2.5352169      0.020940502    21050.758      0.41268373     0.4017763      0.44202543     0.39424946    -0.015589241    19.222126      19.066603      57.437163     -2.1732459    
    996100   0.020819691   -2.5667965     -2.5355682      0.020819691    21050.758      0.41369853     0.38946923     0.4484112      0.40321516    -0.010562533    19.222126      19.066603      57.437163     -2.1727071    
    996200   0.020809036   -2.567132      -2.5359198      0.020809036    21050.758      0.40739009     0.38504791     0.44549821     0.39162417    -0.018803324    19.222126      19.066603      57.437163     -2.1785919    
    996300   0.020552104   -2.5670885     -2.5362617      0.020552104    21050.758      0.41479592     0.39302383     0.45613453     0.39522938    -0.010716906    19.222126      19.066603      57.437163     -2.172438     
    996400   0.020587007   -2.5674931     -2.5366139      0.020587007    21050.758      0.40609939     0.38804898     0.43858177     0.39166741    -0.010754723    19.222126      19.066603      57.437163     -2.1804181    
    996500   0.020349283   -2.5674888     -2.5369661      0.020349283    21050.758      0.41497308     0.40016641     0.44062002     0.40413281    -0.018421787    19.222126      19.066603      57.437163     -2.172987     
    996600   0.020301059   -2.5677726     -2.5373222      0.020301059    21050.758      0.41284805     0.39806589     0.44234772     0.39813054    -0.0098026167   19.222126      19.066603      57.437163     -2.1752071    
    996700   0.020132483   -2.5678701     -2.5376726      0.020132483    21050.758      0.41463258     0.40222619     0.44055964     0.40111192    -0.016630203    19.222126      19.066603      57.437163     -2.1739922    
    996800   0.020027999   -2.5680607     -2.5380199      0.020027999    21050.758      0.42031902     0.40421306     0.45755851     0.39918548    -0.014936134    19.222126      19.066603      57.437163     -2.1693519    
    996900   0.020047322   -2.5684362     -2.5383664      0.020047322    21050.758      0.40874376     0.39345156     0.43783687     0.39494284    -0.013390372    19.222126      19.066603      57.437163     -2.1798512    
    997000   0.01987842    -2.5685363     -2.5387199      0.01987842     21050.758      0.41070737     0.39160171     0.45032064     0.39019976    -0.0072198761   19.222126      19.066603      57.437163     -2.1784823    
    997100   0.019675931   -2.5685897     -2.5390771      0.019675931    21050.758      0.40907139     0.40137201     0.44571622     0.38012595    -0.01530682     19.222126      19.066603      57.437163     -2.1802745    
    997200   0.019645094   -2.5688885     -2.539422       0.019645094    21050.758      0.40472688     0.39075564     0.43465136     0.38877362    -0.011388541    19.222126      19.066603      57.437163     -2.1844301    
    997300   0.019491949   -2.5690103     -2.5397736      0.019491949    21050.758      0.41006831     0.39536287     0.43668423     0.39815782    -0.017672493    19.222126      19.066603      57.437163     -2.1800966    
    997400   0.019295155   -2.5690672     -2.5401256      0.019295155    21050.758      0.40329677     0.39667924     0.43094008     0.38227099    -0.0098937629   19.222126      19.066603      57.437163     -2.186388     
    997500   0.01934056    -2.5694792     -2.5404696      0.01934056     21050.758      0.40625796     0.40250858     0.43052286     0.38574245    -0.0053898714   19.222126      19.066603      57.437163     -2.1841347    
    997600   0.019006593   -2.5693338     -2.5408251      0.019006593    21050.758      0.41565685     0.40608705     0.43682379     0.40405971    -0.016558845    19.222126      19.066603      57.437163     -2.1762463    
    997700   0.018795314   -2.5693632     -2.5411714      0.018795314    21050.758      0.40372057     0.39672474     0.42249265     0.39194431    -0.0087563272   19.222126      19.066603      57.437163     -2.1870621    
    997800   0.018938859   -2.5699263     -2.5415192      0.018938859    21050.758      0.40896613     0.39778152     0.44279422     0.38632264    -0.012774785    19.222126      19.066603      57.437163     -2.1828089    
    997900   0.0186757     -2.5698711     -2.5418587      0.0186757      21050.758      0.40474722     0.38298919     0.44219431     0.38905816    -0.0092400151   19.222126      19.066603      57.437163     -2.1868489    
    998000   0.018682243   -2.5702269     -2.5422047      0.018682243    21050.758      0.41084617     0.39892061     0.43760117     0.39601675    -0.018788094    19.222126      19.066603      57.437163     -2.1818454    
    998100   0.018458822   -2.5702372     -2.5425501      0.018458822    21050.758      0.41112963     0.39839411     0.44508102     0.38991377    -0.0082122024   19.222126      19.066603      57.437163     -2.1819421    
    998200   0.018300745   -2.5703405     -2.5428906      0.018300745    21050.758      0.40227714     0.38671757     0.42804377     0.39207009    -0.01364342     19.222126      19.066603      57.437163     -2.1900473    
    998300   0.018244755   -2.5705974     -2.5432314      0.018244755    21050.758      0.40784552     0.39279956     0.44121047     0.38952655    -0.0087591252   19.222126      19.066603      57.437163     -2.185504     
    998400   0.018158247   -2.5708165     -2.5435802      0.018158247    21050.758      0.41538585     0.40936426     0.44754418     0.38924912    -0.010142735    19.222126      19.066603      57.437163     -2.1792391    
    998500   0.018067943   -2.5710267     -2.5439259      0.018067943    21050.758      0.41305567     0.40164403     0.44347017     0.3940528     -0.0043036554   19.222126      19.066603      57.437163     -2.1816286    
    998600   0.01792472    -2.5711614     -2.5442755      0.01792472     21050.758      0.39803574     0.3810941      0.42594827     0.38706485    -0.0084167269   19.222126      19.066603      57.437163     -2.1951524    
    998700   0.017838328   -2.5713806     -2.5446242      0.017838328    21050.758      0.40751434     0.40082036     0.43060204     0.39112061    -0.0077092984   19.222126      19.066603      57.437163     -2.1871873    
    998800   0.017737995   -2.5715763     -2.5449705      0.017737995    21050.758      0.3992085      0.38677201     0.43548007     0.37537342    -0.014870978    19.222126      19.066603      57.437163     -2.1948187    
    998900   0.01760341    -2.57172       -2.545316       0.01760341     21050.758      0.40458324     0.39025083     0.43549989     0.38799899    -0.010511642    19.222126      19.066603      57.437163     -2.19045      
    999000   0.017330171   -2.5716549     -2.5456608      0.017330171    21050.758      0.39914025     0.39081465     0.4284773      0.37812881    -0.008296359    19.222126      19.066603      57.437163     -2.1955689    
    999100   0.017342932   -2.5720293     -2.546016       0.017342932    21050.758      0.40865609     0.38872127     0.44719398     0.39005301    -0.016422013    19.222126      19.066603      57.437163     -2.1875776    
    999200   0.017239306   -2.5722241     -2.5463662      0.017239306    21050.758      0.40100513     0.3842786      0.43256063     0.38617615    -0.012582659    19.222126      19.066603      57.437163     -2.1946386    
    999300   0.017120283   -2.57239       -2.5467107      0.017120283    21050.758      0.39078892     0.37093854     0.4241042      0.37732402    -0.011342781    19.222126      19.066603      57.437163     -2.2039439    
    999400   0.016880346   -2.5723768     -2.5470573      0.016880346    21050.758      0.39336973     0.39153767     0.4169874      0.37158413    -0.014182535    19.222126      19.066603      57.437163     -2.2020268    
    999500   0.016870589   -2.5727113     -2.5474065      0.016870589    21050.758      0.39848277     0.39251629     0.43451125     0.36842076     5.4641675e-05  19.222126      19.066603      57.437163     -2.1978913    
    999600   0.016781033   -2.5729193     -2.5477488      0.016781033    21050.758      0.39152749     0.38050815     0.42337265     0.37070167    -0.01468446     19.222126      19.066603      57.437163     -2.2043342    
    999700   0.016572411   -2.5729551     -2.5480975      0.016572411    21050.758      0.38614226     0.37326262     0.42629056     0.3588736     -0.011897036    19.222126      19.066603      57.437163     -2.2094064    
    999800   0.016438441   -2.573102      -2.5484453      0.016438441    21050.758      0.40528148     0.38673872     0.43935038     0.38975533    -0.016124361    19.222126      19.066603      57.437163     -2.1929669    
    999900   0.016445686   -2.5734536     -2.5487861      0.016445686    21050.758      0.39464716     0.37880689     0.43070524     0.37442935    -0.015397523    19.222126      19.066603      57.437163     -2.2026352    
   1000000   0.016271725   -2.5735435     -2.5491369      0.016271725    21050.758      0.39253425     0.3830754      0.42523343     0.36929392    -0.013274273    19.222126      19.066603      57.437163     -2.2048393    
Loop time of 305.678 on 6 procs for 1000000 steps with 24000 atoms

Performance: 1413252.465 tau/day, 3271.418 timesteps/s
76.4% CPU use with 6 MPI tasks x no OpenMP threads

MPI task timing breakdown:
Section |  min time  |  avg time  |  max time  |%varavg| %total
---------------------------------------------------------------
Pair    | 103.76     | 107.81     | 113.76     |  40.8 | 35.27
Neigh   | 0.0097692  | 0.0104     | 0.01098    |   0.4 |  0.00
Comm    | 116.09     | 123.32     | 128.4      |  45.3 | 40.34
Output  | 1.3567     | 1.3694     | 1.4287     |   2.3 |  0.45
Modify  | 62.423     | 63.277     | 63.786     |   5.9 | 20.70
Other   |            | 9.897      |            |       |  3.24

Nlocal:           4000 ave        4026 max        3970 min
Histogram: 1 0 0 1 0 2 0 1 0 1
Nghost:        4022.67 ave        4047 max        4005 min
Histogram: 2 0 1 0 0 1 1 0 0 1
Neighs:              0 ave           0 max           0 min
Histogram: 6 0 0 0 0 0 0 0 0 0

Total # of neighbors = -6
Ave neighs/atom = -0.00025
Neighbor list builds = 100000
Dangerous builds not checked

write_data	glass.readdata
System init for write_data ...
  generated 0 of 1 mixed pair_coeff terms from geometric mixing rule
WARNING: Not all mixed pair coeffs generated from mixing. Use write_data with 'pair ij' option to store all pair coeffs. (src/write_data.cpp:309)
log             log.mech
